 Entering Link 1 = C:\G09W\l1.exe PID=      4744.
  
 Copyright (c) 1988,1990,1992,1993,1995,1998,2003,2009, Gaussian, Inc.
                  All Rights Reserved.
  
 This is part of the Gaussian(R) 09 program.  It is based on
 the Gaussian(R) 03 system (copyright 2003, Gaussian, Inc.),
 the Gaussian(R) 98 system (copyright 1998, Gaussian, Inc.),
 the Gaussian(R) 94 system (copyright 1995, Gaussian, Inc.),
 the Gaussian 92(TM) system (copyright 1992, Gaussian, Inc.),
 the Gaussian 90(TM) system (copyright 1990, Gaussian, Inc.),
 the Gaussian 88(TM) system (copyright 1988, Gaussian, Inc.),
 the Gaussian 86(TM) system (copyright 1986, Carnegie Mellon
 University), and the Gaussian 82(TM) system (copyright 1983,
 Carnegie Mellon University). Gaussian is a federally registered
 trademark of Gaussian, Inc.
  
 This software contains proprietary and confidential information,
 including trade secrets, belonging to Gaussian, Inc.
  
 This software is provided under written license and may be
 used, copied, transmitted, or stored only in accord with that
 written license.
  
 The following legend is applicable only to US Government
 contracts under FAR:
  
                    RESTRICTED RIGHTS LEGEND
  
 Use, reproduction and disclosure by the US Government is
 subject to restrictions as set forth in subparagraphs (a)
 and (c) of the Commercial Computer Software - Restricted
 Rights clause in FAR 52.227-19.
  
 Gaussian, Inc.
 340 Quinnipiac St., Bldg. 40, Wallingford CT 06492
  
  
 ---------------------------------------------------------------
 Warning -- This program may not be used in any manner that
 competes with the business of Gaussian, Inc. or will provide
 assistance to any competitor of Gaussian, Inc.  The licensee
 of this program is prohibited from giving any competitor of
 Gaussian, Inc. access to this program.  By using this program,
 the user acknowledges that Gaussian, Inc. is engaged in the
 business of creating and licensing software in the field of
 computational chemistry and represents and warrants to the
 licensee that it is not a competitor of Gaussian, Inc. and that
 it will not use this program in any manner prohibited above.
 ---------------------------------------------------------------
  

 Cite this work as:
 Gaussian 09, Revision A.02,
 M. J. Frisch, G. W. Trucks, H. B. Schlegel, G. E. Scuseria, 
 M. A. Robb, J. R. Cheeseman, G. Scalmani, V. Barone, B. Mennucci, 
 G. A. Petersson, H. Nakatsuji, M. Caricato, X. Li, H. P. Hratchian, 
 A. F. Izmaylov, J. Bloino, G. Zheng, J. L. Sonnenberg, M. Hada, 
 M. Ehara, K. Toyota, R. Fukuda, J. Hasegawa, M. Ishida, T. Nakajima, 
 Y. Honda, O. Kitao, H. Nakai, T. Vreven, J. A. Montgomery, Jr., 
 J. E. Peralta, F. Ogliaro, M. Bearpark, J. J. Heyd, E. Brothers, 
 K. N. Kudin, V. N. Staroverov, R. Kobayashi, J. Normand, 
 K. Raghavachari, A. Rendell, J. C. Burant, S. S. Iyengar, J. Tomasi, 
 M. Cossi, N. Rega, J. M. Millam, M. Klene, J. E. Knox, J. B. Cross, 
 V. Bakken, C. Adamo, J. Jaramillo, R. Gomperts, R. E. Stratmann, 
 O. Yazyev, A. J. Austin, R. Cammi, C. Pomelli, J. W. Ochterski, 
 R. L. Martin, K. Morokuma, V. G. Zakrzewski, G. A. Voth, 
 P. Salvador, J. J. Dannenberg, S. Dapprich, A. D. Daniels, 
 O. Farkas, J. B. Foresman, J. V. Ortiz, J. Cioslowski, 
 and D. J. Fox, Gaussian, Inc., Wallingford CT, 2009.
 
 ******************************************
 Gaussian 09:  IA32W-G09RevA.02 11-Jun-2009
                25-Oct-2017 
 ******************************************
 %chk=Oxph1_DFT-B3LYP_Opt.chk
 -----------------------------------------------------
 # B3LYP/6-311++G(d,p) Opt SCRF=(IEFPCM,Solvent=Water)
 -----------------------------------------------------
 1/14=-1,18=20,19=15,26=3,38=1/1,3;
 2/9=110,12=2,17=6,18=5,40=1/2;
 3/5=4,6=6,7=1111,11=2,16=1,25=1,30=1,70=2201,71=1,72=1,74=-5/1,2,3;
 4//1;
 5/5=2,38=5,53=1/2;
 6/7=2,8=2,9=2,10=2,28=1/1;
 7//1,2,3,16;
 1/14=-1,18=20,19=15/3(2);
 2/9=110/2;
 99//99;
 2/9=110/2;
 3/5=4,6=6,7=1111,11=2,16=1,25=1,30=1,70=2205,71=1,72=1,74=-5/1,2,3;
 4/5=5,16=3/1;
 5/5=2,38=5,53=1/2;
 7//1,2,3,16;
 1/14=-1,18=20,19=15/3(-5);
 2/9=110/2;
 6/7=2,8=2,9=2,10=2,19=2,28=1/1;
 99/9=1/99;
 ----
 Oxph
 ----
 Symbolic Z-matrix:
 Charge =  0 Multiplicity = 1
 C
 C                    1    B1
 C                    2    B2       1    A1
 C                    3    B3       2    A2       1    D1       0
 C                    4    B4       3    A3       2    D2       0
 C                    5    B5       4    A4       3    D3       0
 N                    6    B6       5    A5       4    D4       0
 C                    7    B7       6    A6       5    D5       0
 C                    8    B8       7    A7       6    D6       0
 C                    9    B9       8    A8       7    D7       0
 O                    1    B10      2    A9       3    D8       0
 H                    11   B11      1    A10      2    D9       0
 H                    2    B12      1    A11      11   D10      0
 H                    3    B13      2    A12      1    D11      0
 H                    4    B14      3    A13      2    D12      0
 H                    10   B15      9    A14      8    D13      0
 H                    9    B16      8    A15      7    D14      0
 H                    8    B17      7    A16      6    D15      0
 H                    7    B18      6    A17      5    D16      0
 C                    11   B19      1    A18      2    D17      0
 O                    20   B20      11   A19      1    D18      0
 O                    20   B21      11   A20      1    D19      0
 C                    20   B22      11   A21      1    D20      0
 C                    23   B23      20   A22      11   D21      0
 C                    24   B24      23   A23      20   D22      0
 C                    25   B25      24   A24      23   D23      0
 C                    26   B26      25   A25      24   D24      0
 C                    27   B27      26   A26      25   D25      0
 H                    24   B28      23   A27      20   D26      0
 H                    25   B29      24   A28      23   D27      0
 H                    26   B30      25   A29      24   D28      0
 H                    27   B31      26   A30      25   D29      0
 C                    28   B32      27   A31      26   D30      0
 O                    33   B33      28   A32      27   D31      0
 O                    33   B34      28   A33      27   D32      0
 H                    35   B35      33   A34      28   D33      0
       Variables:
  B1                    1.40711                  
  B2                    1.40426                  
  B3                    1.38832                  
  B4                    1.40798                  
  B5                    1.4275                   
  B6                    1.35702                  
  B7                    1.33177                  
  B8                    1.39793                  
  B9                    1.38457                  
  B10                   1.28357                  
  B11                   0.99697                  
  B12                   1.08278                  
  B13                   1.08499                  
  B14                   1.08253                  
  B15                   1.08492                  
  B16                   1.08153                  
  B17                   1.08115                  
  B18                   1.02685                  
  B19                   3.37983                  
  B20                   1.30802                  
  B21                   1.23297                  
  B22                   1.50381                  
  B23                   1.40497                  
  B24                   1.38752                  
  B25                   1.39091                  
  B26                   1.38832                  
  B27                   1.40223                  
  B28                   1.08082                  
  B29                   1.084                    
  B30                   1.08418                  
  B31                   1.08161                  
  B32                   1.53471                  
  B33                   1.21041                  
  B34                   1.32543                  
  B35                   0.99697                  
  A1                  121.23222                  
  A2                  123.65776                  
  A3                  118.40781                  
  A4                  117.70951                  
  A5                  119.59266                  
  A6                  124.19912                  
  A7                  118.83018                  
  A8                  119.64871                  
  A9                  128.59954                  
  A10                 128.50054                  
  A11                 118.15852                  
  A12                 117.7187                   
  A13                 121.41488                  
  A14                 119.62185                  
  A15                 119.15664                  
  A16                 117.44622                  
  A17                 112.01074                  
  A18                 114.47617                  
  A19                  40.26006                  
  A20                  82.00816                  
  A21                 154.0927                   
  A22                 115.34749                  
  A23                 121.90728                  
  A24                 119.29976                  
  A25                 119.60292                  
  A26                 122.37762                  
  A27                 118.10646                  
  A28                 119.92338                  
  A29                 120.61168                  
  A30                 120.45966                  
  A31                 112.22769                  
  A32                 119.31875                  
  A33                 119.80549                  
  A34                 111.625                    
  D1                   -0.21409                  
  D2                   -0.07602                  
  D3                    0.18101                  
  D4                 -179.97821                  
  D5                    0.04563                  
  D6                   -0.03894                  
  D7                   -0.01002                  
  D8                 -179.76733                  
  D9                    4.00331                  
  D10                   0.83815                  
  D11                 179.92663                  
  D12                -179.95418                  
  D13                -179.98685                  
  D14                -179.98665                  
  D15                 179.9902                   
  D16                -179.92555                  
  D17                  -1.20078                  
  D18                 165.27061                  
  D19                 -13.33545                  
  D20                 172.64754                  
  D21                  16.06056                  
  D22                 177.1953                   
  D23                   1.37685                  
  D24                   0.26748                  
  D25                  -1.57133                  
  D26                  -2.44104                  
  D27                -178.99428                  
  D28                 179.66354                  
  D29                 177.77371                  
  D30                 178.99779                  
  D31                 -19.23926                  
  D32                 158.15097                  
  D33                   9.81839                  
 

 GradGradGradGradGradGradGradGradGradGradGradGradGradGradGradGradGradGrad
 Berny optimization.
 Initialization pass.
                           ----------------------------
                           !    Initial Parameters    !
                           ! (Angstroms and Degrees)  !
 --------------------------                            --------------------------
 ! Name  Definition              Value          Derivative Info.                !
 --------------------------------------------------------------------------------
 ! R1    R(1,2)                  1.4071         estimate D2E/DX2                !
 ! R2    R(1,6)                  1.4436         estimate D2E/DX2                !
 ! R3    R(1,11)                 1.2836         estimate D2E/DX2                !
 ! R4    R(2,3)                  1.4043         estimate D2E/DX2                !
 ! R5    R(2,13)                 1.0828         estimate D2E/DX2                !
 ! R6    R(3,4)                  1.3883         estimate D2E/DX2                !
 ! R7    R(3,14)                 1.085          estimate D2E/DX2                !
 ! R8    R(4,5)                  1.408          estimate D2E/DX2                !
 ! R9    R(4,15)                 1.0825         estimate D2E/DX2                !
 ! R10   R(5,6)                  1.4275         estimate D2E/DX2                !
 ! R11   R(5,10)                 1.4143         estimate D2E/DX2                !
 ! R12   R(6,7)                  1.357          estimate D2E/DX2                !
 ! R13   R(7,8)                  1.3318         estimate D2E/DX2                !
 ! R14   R(7,19)                 1.0269         estimate D2E/DX2                !
 ! R15   R(8,9)                  1.3979         estimate D2E/DX2                !
 ! R16   R(8,18)                 1.0811         estimate D2E/DX2                !
 ! R17   R(9,10)                 1.3846         estimate D2E/DX2                !
 ! R18   R(9,17)                 1.0815         estimate D2E/DX2                !
 ! R19   R(10,16)                1.0849         estimate D2E/DX2                !
 ! R20   R(11,12)                0.997          estimate D2E/DX2                !
 ! R21   R(12,21)                1.5362         estimate D2E/DX2                !
 ! R22   R(20,21)                1.308          estimate D2E/DX2                !
 ! R23   R(20,22)                1.233          estimate D2E/DX2                !
 ! R24   R(20,23)                1.5038         estimate D2E/DX2                !
 ! R25   R(22,36)                1.5531         estimate D2E/DX2                !
 ! R26   R(23,24)                1.405          estimate D2E/DX2                !
 ! R27   R(23,28)                1.421          estimate D2E/DX2                !
 ! R28   R(24,25)                1.3875         estimate D2E/DX2                !
 ! R29   R(24,29)                1.0808         estimate D2E/DX2                !
 ! R30   R(25,26)                1.3909         estimate D2E/DX2                !
 ! R31   R(25,30)                1.084          estimate D2E/DX2                !
 ! R32   R(26,27)                1.3883         estimate D2E/DX2                !
 ! R33   R(26,31)                1.0842         estimate D2E/DX2                !
 ! R34   R(27,28)                1.4022         estimate D2E/DX2                !
 ! R35   R(27,32)                1.0816         estimate D2E/DX2                !
 ! R36   R(28,33)                1.5347         estimate D2E/DX2                !
 ! R37   R(33,34)                1.2104         estimate D2E/DX2                !
 ! R38   R(33,35)                1.3254         estimate D2E/DX2                !
 ! R39   R(35,36)                0.997          estimate D2E/DX2                !
 ! A1    A(2,1,6)              114.3365         estimate D2E/DX2                !
 ! A2    A(2,1,11)             128.5995         estimate D2E/DX2                !
 ! A3    A(6,1,11)             117.0639         estimate D2E/DX2                !
 ! A4    A(1,2,3)              121.2322         estimate D2E/DX2                !
 ! A5    A(1,2,13)             118.1585         estimate D2E/DX2                !
 ! A6    A(3,2,13)             120.6065         estimate D2E/DX2                !
 ! A7    A(2,3,4)              123.6578         estimate D2E/DX2                !
 ! A8    A(2,3,14)             117.7187         estimate D2E/DX2                !
 ! A9    A(4,3,14)             118.6234         estimate D2E/DX2                !
 ! A10   A(3,4,5)              118.4078         estimate D2E/DX2                !
 ! A11   A(3,4,15)             121.4149         estimate D2E/DX2                !
 ! A12   A(5,4,15)             120.1772         estimate D2E/DX2                !
 ! A13   A(4,5,6)              117.7095         estimate D2E/DX2                !
 ! A14   A(4,5,10)             126.0091         estimate D2E/DX2                !
 ! A15   A(6,5,10)             116.2814         estimate D2E/DX2                !
 ! A16   A(1,6,5)              124.6552         estimate D2E/DX2                !
 ! A17   A(1,6,7)              115.7521         estimate D2E/DX2                !
 ! A18   A(5,6,7)              119.5927         estimate D2E/DX2                !
 ! A19   A(6,7,8)              124.1991         estimate D2E/DX2                !
 ! A20   A(6,7,19)             112.0107         estimate D2E/DX2                !
 ! A21   A(8,7,19)             123.7901         estimate D2E/DX2                !
 ! A22   A(7,8,9)              118.8302         estimate D2E/DX2                !
 ! A23   A(7,8,18)             117.4462         estimate D2E/DX2                !
 ! A24   A(9,8,18)             123.7236         estimate D2E/DX2                !
 ! A25   A(8,9,10)             119.6487         estimate D2E/DX2                !
 ! A26   A(8,9,17)             119.1566         estimate D2E/DX2                !
 ! A27   A(10,9,17)            121.1946         estimate D2E/DX2                !
 ! A28   A(5,10,9)             121.4479         estimate D2E/DX2                !
 ! A29   A(5,10,16)            118.9302         estimate D2E/DX2                !
 ! A30   A(9,10,16)            119.6219         estimate D2E/DX2                !
 ! A31   A(1,11,12)            128.5005         estimate D2E/DX2                !
 ! A32   A(11,12,21)           171.9902         estimate D2E/DX2                !
 ! A33   A(21,20,22)           122.2554         estimate D2E/DX2                !
 ! A34   A(21,20,23)           113.9791         estimate D2E/DX2                !
 ! A35   A(22,20,23)           123.7366         estimate D2E/DX2                !
 ! A36   A(12,21,20)           117.0573         estimate D2E/DX2                !
 ! A37   A(20,23,24)           115.3475         estimate D2E/DX2                !
 ! A38   A(20,23,28)           125.7194         estimate D2E/DX2                !
 ! A39   A(24,23,28)           118.9232         estimate D2E/DX2                !
 ! A40   A(23,24,25)           121.9073         estimate D2E/DX2                !
 ! A41   A(23,24,29)           118.1065         estimate D2E/DX2                !
 ! A42   A(25,24,29)           119.9853         estimate D2E/DX2                !
 ! A43   A(24,25,26)           119.2998         estimate D2E/DX2                !
 ! A44   A(24,25,30)           119.9234         estimate D2E/DX2                !
 ! A45   A(26,25,30)           120.7758         estimate D2E/DX2                !
 ! A46   A(25,26,27)           119.6029         estimate D2E/DX2                !
 ! A47   A(25,26,31)           120.6117         estimate D2E/DX2                !
 ! A48   A(27,26,31)           119.7827         estimate D2E/DX2                !
 ! A49   A(26,27,28)           122.3776         estimate D2E/DX2                !
 ! A50   A(26,27,32)           120.4597         estimate D2E/DX2                !
 ! A51   A(28,27,32)           117.1597         estimate D2E/DX2                !
 ! A52   A(23,28,27)           117.8559         estimate D2E/DX2                !
 ! A53   A(23,28,33)           129.8714         estimate D2E/DX2                !
 ! A54   A(27,28,33)           112.2277         estimate D2E/DX2                !
 ! A55   A(28,33,34)           119.3187         estimate D2E/DX2                !
 ! A56   A(28,33,35)           119.8055         estimate D2E/DX2                !
 ! A57   A(34,33,35)           120.8234         estimate D2E/DX2                !
 ! A58   A(33,35,36)           111.625          estimate D2E/DX2                !
 ! D1    D(6,1,2,3)              0.3558         estimate D2E/DX2                !
 ! D2    D(6,1,2,13)          -179.0387         estimate D2E/DX2                !
 ! D3    D(11,1,2,3)          -179.7673         estimate D2E/DX2                !
 ! D4    D(11,1,2,13)            0.8381         estimate D2E/DX2                !
 ! D5    D(2,1,6,5)             -0.2516         estimate D2E/DX2                !
 ! D6    D(2,1,6,7)            179.7136         estimate D2E/DX2                !
 ! D7    D(11,1,6,5)           179.8565         estimate D2E/DX2                !
 ! D8    D(11,1,6,7)            -0.1784         estimate D2E/DX2                !
 ! D9    D(2,1,11,12)            4.0033         estimate D2E/DX2                !
 ! D10   D(6,1,11,12)         -176.1227         estimate D2E/DX2                !
 ! D11   D(1,2,3,4)             -0.2141         estimate D2E/DX2                !
 ! D12   D(1,2,3,14)           179.9266         estimate D2E/DX2                !
 ! D13   D(13,2,3,4)           179.1657         estimate D2E/DX2                !
 ! D14   D(13,2,3,14)           -0.6936         estimate D2E/DX2                !
 ! D15   D(2,3,4,5)             -0.076          estimate D2E/DX2                !
 ! D16   D(2,3,4,15)          -179.9542         estimate D2E/DX2                !
 ! D17   D(14,3,4,5)           179.7821         estimate D2E/DX2                !
 ! D18   D(14,3,4,15)           -0.0961         estimate D2E/DX2                !
 ! D19   D(3,4,5,6)              0.181          estimate D2E/DX2                !
 ! D20   D(3,4,5,10)          -179.791          estimate D2E/DX2                !
 ! D21   D(15,4,5,6)          -179.9393         estimate D2E/DX2                !
 ! D22   D(15,4,5,10)            0.0887         estimate D2E/DX2                !
 ! D23   D(4,5,6,1)             -0.0143         estimate D2E/DX2                !
 ! D24   D(4,5,6,7)           -179.9782         estimate D2E/DX2                !
 ! D25   D(10,5,6,1)           179.9605         estimate D2E/DX2                !
 ! D26   D(10,5,6,7)            -0.0034         estimate D2E/DX2                !
 ! D27   D(4,5,10,9)           179.9292         estimate D2E/DX2                !
 ! D28   D(4,5,10,16)           -0.0333         estimate D2E/DX2                !
 ! D29   D(6,5,10,9)            -0.0432         estimate D2E/DX2                !
 ! D30   D(6,5,10,16)          179.9943         estimate D2E/DX2                !
 ! D31   D(1,6,7,8)           -179.9214         estimate D2E/DX2                !
 ! D32   D(1,6,7,19)             0.1074         estimate D2E/DX2                !
 ! D33   D(5,6,7,8)              0.0456         estimate D2E/DX2                !
 ! D34   D(5,6,7,19)          -179.9255         estimate D2E/DX2                !
 ! D35   D(6,7,8,9)             -0.0389         estimate D2E/DX2                !
 ! D36   D(6,7,8,18)           179.9902         estimate D2E/DX2                !
 ! D37   D(19,7,8,9)           179.9289         estimate D2E/DX2                !
 ! D38   D(19,7,8,18)           -0.042          estimate D2E/DX2                !
 ! D39   D(7,8,9,10)            -0.01           estimate D2E/DX2                !
 ! D40   D(7,8,9,17)          -179.9867         estimate D2E/DX2                !
 ! D41   D(18,8,9,10)          179.9589         estimate D2E/DX2                !
 ! D42   D(18,8,9,17)           -0.0177         estimate D2E/DX2                !
 ! D43   D(8,9,10,5)             0.0509         estimate D2E/DX2                !
 ! D44   D(8,9,10,16)         -179.9868         estimate D2E/DX2                !
 ! D45   D(17,9,10,5)         -179.973          estimate D2E/DX2                !
 ! D46   D(17,9,10,16)          -0.0107         estimate D2E/DX2                !
 ! D47   D(1,11,12,21)         167.0003         estimate D2E/DX2                !
 ! D48   D(11,12,21,20)        175.5986         estimate D2E/DX2                !
 ! D49   D(22,20,21,12)          1.3527         estimate D2E/DX2                !
 ! D50   D(23,20,21,12)       -176.7596         estimate D2E/DX2                !
 ! D51   D(21,20,23,24)         21.2711         estimate D2E/DX2                !
 ! D52   D(21,20,23,28)       -159.8941         estimate D2E/DX2                !
 ! D53   D(22,20,23,24)       -156.8093         estimate D2E/DX2                !
 ! D54   D(22,20,23,28)         22.0255         estimate D2E/DX2                !
 ! D55   D(20,23,24,25)        177.1953         estimate D2E/DX2                !
 ! D56   D(20,23,24,29)         -2.441          estimate D2E/DX2                !
 ! D57   D(28,23,24,25)         -1.7239         estimate D2E/DX2                !
 ! D58   D(28,23,24,29)        178.6398         estimate D2E/DX2                !
 ! D59   D(20,23,28,27)       -178.3641         estimate D2E/DX2                !
 ! D60   D(20,23,28,33)          4.289          estimate D2E/DX2                !
 ! D61   D(24,23,28,27)          0.4328         estimate D2E/DX2                !
 ! D62   D(24,23,28,33)       -176.9141         estimate D2E/DX2                !
 ! D63   D(23,24,25,26)          1.3769         estimate D2E/DX2                !
 ! D64   D(23,24,25,30)       -178.9943         estimate D2E/DX2                !
 ! D65   D(29,24,25,26)       -178.9935         estimate D2E/DX2                !
 ! D66   D(29,24,25,30)          0.6354         estimate D2E/DX2                !
 ! D67   D(24,25,26,27)          0.2675         estimate D2E/DX2                !
 ! D68   D(24,25,26,31)        179.6635         estimate D2E/DX2                !
 ! D69   D(30,25,26,27)       -179.3581         estimate D2E/DX2                !
 ! D70   D(30,25,26,31)          0.0379         estimate D2E/DX2                !
 ! D71   D(25,26,27,28)         -1.5713         estimate D2E/DX2                !
 ! D72   D(25,26,27,32)        177.7737         estimate D2E/DX2                !
 ! D73   D(31,26,27,28)        179.0275         estimate D2E/DX2                !
 ! D74   D(31,26,27,32)         -1.6274         estimate D2E/DX2                !
 ! D75   D(26,27,28,23)          1.1972         estimate D2E/DX2                !
 ! D76   D(26,27,28,33)        178.9978         estimate D2E/DX2                !
 ! D77   D(32,27,28,23)       -178.1683         estimate D2E/DX2                !
 ! D78   D(32,27,28,33)         -0.3677         estimate D2E/DX2                !
 ! D79   D(23,28,33,34)        158.2269         estimate D2E/DX2                !
 ! D80   D(23,28,33,35)        -24.3829         estimate D2E/DX2                !
 ! D81   D(27,28,33,34)        -19.2393         estimate D2E/DX2                !
 ! D82   D(27,28,33,35)        158.151          estimate D2E/DX2                !
 ! D83   D(28,33,35,36)          9.8184         estimate D2E/DX2                !
 ! D84   D(34,33,35,36)       -172.8314         estimate D2E/DX2                !
 --------------------------------------------------------------------------------
 Trust Radius=3.00D-01 FncErr=1.00D-07 GrdErr=1.00D-06
 Number of steps in this run= 191 maximum allowed number of steps= 216.
 GradGradGradGradGradGradGradGradGradGradGradGradGradGradGradGradGradGrad

                          Input orientation:                          
 ---------------------------------------------------------------------
 Center     Atomic      Atomic             Coordinates (Angstroms)
 Number     Number       Type             X           Y           Z
 ---------------------------------------------------------------------
      1          6           0        0.000000    0.000000    0.000000
      2          6           0        0.000000    0.000000    1.407112
      3          6           0        1.200748    0.000000    2.135234
      4          6           0        2.457860   -0.004318    1.546096
      5          6           0        2.538847   -0.010609    0.140466
      6          6           0        1.315341   -0.008168   -0.594919
      7          7           0        1.348834   -0.014486   -1.951509
      8          6           0        2.468449   -0.023927   -2.672607
      9          6           0        3.698292   -0.026879   -2.008022
     10          6           0        3.728832   -0.019777   -0.623809
     11          8           0       -1.003134    0.004074   -0.800785
     12          1           0       -1.973525    0.062486   -0.579700
     13          1           0       -0.954577   -0.010088    1.918091
     14          1           0        1.134255    0.001230    3.218187
     15          1           0        3.360828   -0.004898    2.143196
     16          1           0        4.683549   -0.021855   -0.108477
     17          1           0        4.610858   -0.034317   -2.588440
     18          1           0        2.367858   -0.028402   -3.749055
     19          1           0        0.406632   -0.010651   -2.359754
     20          6           0       -4.016426   -0.048153    0.729118
     21          8           0       -3.498648    0.190760   -0.448053
     22          8           0       -3.323062   -0.339579    1.706115
     23          6           0       -5.518251    0.021869    0.761838
     24          6           0       -6.155033   -0.137852   -0.480312
     25          6           0       -7.537363   -0.154190   -0.599061
     26          6           0       -8.320276    0.020203    0.537272
     27          6           0       -7.708591    0.212992    1.768579
     28          6           0       -6.314983    0.207864    1.923711
     29          1           0       -5.536009   -0.255994   -1.358391
     30          1           0       -7.994923   -0.295822   -1.571496
     31          1           0       -9.402247    0.016591    0.468137
     32          1           0       -8.303436    0.385765    2.655257
     33          6           0       -5.891527    0.467095    3.375893
     34          8           0       -6.677119    0.981746    4.139483
     35          8           0       -4.694262    0.079759    3.792170
     36          1           0       -4.120198   -0.218363    3.033540
 ---------------------------------------------------------------------
                    Distance matrix (angstroms):
                    1          2          3          4          5
     1  C    0.000000
     2  C    1.407112   0.000000
     3  C    2.449698   1.404264   0.000000
     4  C    2.903706   2.461790   1.388320   0.000000
     5  C    2.542752   2.837296   2.402025   1.407976   0.000000
     6  C    1.443647   2.395479   2.732569   2.426790   1.427503
     7  N    2.372330   3.619378   4.089450   3.669235   2.406762
     8  C    3.638220   4.768430   4.972221   4.218763   2.813986
     9  C    4.208353   5.034007   4.837874   3.764431   2.441430
    10  C    3.780703   4.246083   3.742181   2.514776   1.414307
    11  O    1.283569   2.425099   3.671147   4.181674   3.664942
    12  H    2.057853   2.801094   4.177413   4.915348   4.570064
    13  H    2.142520   1.082783   2.166259   3.432658   3.919689
    14  H    3.412223   2.136944   1.084993   2.132569   3.383103
    15  H    3.986036   3.440496   2.160101   1.082534   2.164859
    16  H    4.684856   4.922715   4.143021   2.773375   2.159131
    17  H    5.287836   6.101281   5.826073   4.661619   3.426473
    18  H    4.434295   5.673942   5.998984   5.295971   3.893318
    19  H    2.394556   3.788765   4.564608   4.411716   3.285946
    20  C    4.082354   4.073533   5.403553   6.525776   6.581757
    21  O    3.532376   3.964664   5.366012   6.284479   6.069452
    22  O    3.750851   3.353723   4.556788   5.792846   6.076303
    23  C    5.570634   5.555893   6.857962   8.014617   8.081088
    24  C    6.175285   6.439395   7.808175   8.849073   8.716944
    25  C    7.562704   7.801304   9.157222  10.223925  10.104332
    26  C    8.337629   8.365645   9.654210  10.825273  10.866414
    27  C    7.911739   7.720000   8.919424  10.171207  10.378379
    28  C    6.604762   6.339487   7.521579   8.783529   9.034268
    29  H    5.705975   6.193620   7.593078   8.508897   8.216452
    30  H    8.153276   8.536885   9.919058  10.911692  10.675789
    31  H    9.413909   9.449032  10.733266  11.909012  11.945620
    32  H    8.726182   8.405578   9.526214  10.825336  11.137163
    33  C    6.806241   6.229315   7.215107   8.560528   9.042532
    34  O    7.917263   7.281043   8.187895   9.547032  10.095094
    35  O    6.035148   5.266020   6.123965   7.496984   8.103147
    36  H    5.121141   4.434973   5.400658   6.747530   7.263327
                    6          7          8          9         10
     6  C    0.000000
     7  N    1.357017   0.000000
     8  C    2.376277   1.331770   0.000000
     9  C    2.770499   2.350170   1.397925   0.000000
    10  C    2.413692   2.725290   2.405444   1.384569   0.000000
    11  O    2.327629   2.618447   3.944159   4.854048   4.735335
    12  H    3.289660   3.595254   4.911096   5.849581   5.703121
    13  H    3.386407   4.503279   5.726414   6.088008   5.328759
    14  H    3.817416   5.174171   6.040047   5.821369   4.636076
    15  H    3.417793   4.562327   4.897823   4.164971   2.791409
    16  H    3.403181   3.810138   3.388427   2.139867   1.084922
    17  H    3.851654   3.323684   2.144087   1.081535   2.153592
    18  H    3.325173   2.066344   1.081146   2.191175   3.408737
    19  H    1.985044   1.026851   2.085460   3.310438   3.748413
    20  C    5.493853   5.997742   7.322973   8.185919   7.862585
    21  O    4.820335   5.079428   6.371890   7.367280   7.232682
    22  O    5.188389   5.942265   7.267355   7.949340   7.433709
    23  C    6.967042   7.383795   8.693957   9.623885   9.350417
    24  C    7.472379   7.647723   8.898516   9.971671   9.885612
    25  C    8.853909   8.989612  10.219238  11.324368  11.267024
    26  C    9.701947   9.984333  11.256192  12.285223  12.104987
    27  C    9.330937   9.794271  11.106413  12.018204  11.687273
    28  C    8.038160   8.590742   9.916075  10.760079  10.364357
    29  H    6.898210   6.914562   8.114947   9.259958   9.296918
    30  H    9.365760   9.355712  10.524663  11.704450  11.765235
    31  H   10.770209  11.020045  12.279224  13.332568  13.176453
    32  H   10.160694  10.702748  12.024454  12.882466  12.477669
    33  C    8.242097   9.001997  10.330278  11.008868  10.430051
    34  O    9.342051  10.124652  11.448029  12.101995  11.488072
    35  O    7.441077   8.337730   9.649276  10.202381   9.511009
    36  H    6.538730   7.402877   8.718268   9.304988   8.661577
                   11         12         13         14         15
    11  O    0.000000
    12  H    0.996970   0.000000
    13  H    2.719346   2.698608   0.000000
    14  H    4.551986   4.907749   2.460406   0.000000
    15  H    5.264150   5.989494   4.321276   2.472503   0.000000
    16  H    5.728728   6.674264   5.991292   4.864639   2.611496
    17  H    5.891867   6.884657   7.161249   6.767936   4.894060
    18  H    4.478497   5.375935   6.569281   7.075671   5.975380
    19  H    2.101913   2.973060   4.489192   5.625211   5.385524
    20  C    3.379832   2.428722   3.284817   5.720789   7.511683
    21  O    2.527224   1.536159   3.480125   5.911094   7.335208
    22  O    3.432887   2.684746   2.400671   4.719131   6.706523
    23  C    4.777906   3.790311   4.707978   7.091538   8.985929
    24  C    5.163808   4.187484   5.728299   8.175082   9.871783
    25  C    6.539257   5.568089   7.049105   9.475891  11.238898
    26  C    7.438496   6.444429   7.494070   9.827300  11.791006
    27  C    7.183901   6.199037   6.759351   8.963378  11.077900
    28  C    5.973286   5.013627   5.364838   7.563697   9.680639
    29  H    4.574441   3.660475   5.637847   8.093433   9.564407
    30  H    7.040529   6.113042   7.862908  10.313642  11.951429
    31  H    8.494435   7.502398   8.571243  10.889486  12.872544
    32  H    8.086058   7.115985   7.396340   9.462282  11.682033
    33  C    6.446349   5.582219   5.169754   7.042976   9.346036
    34  O    7.586580   6.726033   6.218183   7.926396  10.281975
    35  O    5.892826   5.149365   4.183956   5.857238   8.222577
    36  H    4.946475   4.212195   3.362850   5.262281   7.536845
                   16         17         18         19         20
    16  H    0.000000
    17  H    2.481060   0.000000
    18  H    4.314659   2.525492   0.000000
    19  H    4.833259   4.210508   2.403514   0.000000
    20  C    8.740242   9.243182   7.798302   5.394996   0.000000
    21  O    8.192000   8.390233   6.735024   4.352744   1.308016
    22  O    8.215809   9.026820   7.889378   5.527215   1.232967
    23  C   10.238949  10.668944   9.085230   6.696987   1.503812
    24  C   10.845579  10.970841   9.128874   6.826707   2.458537
    25  C   12.231471  12.310616  10.394791   8.138040   3.764611
    26  C   13.019916  13.303656  11.515692   9.195250   4.308665
    27  C   12.535695  13.069568  11.490752   9.107689   3.844575
    28  C   11.187058  11.823374  10.374383   7.973451   2.603067
    29  H   10.298372  10.223554   8.260640   6.031409   2.590371
    30  H   12.765545  12.649438  10.592474   8.443270   4.602456
    31  H   14.097646  14.342677  12.502884  10.208419   5.392529
    32  H   13.284057  13.944599  12.452440  10.058467   4.719825
    33  C   11.145050  12.088208  10.919150   8.531863   3.284341
    34  O   12.170339  13.180127  12.044129   9.664598   4.446410
    35  O   10.157201  11.283194  10.332247   7.992088   3.139763
    36  H    9.349698  10.386139   9.388001   7.044356   2.313028
                   21         22         23         24         25
    21  O    0.000000
    22  O    2.225428   0.000000
    23  C    2.360329   2.416849   0.000000
    24  C    2.676828   3.583465   1.404969   0.000000
    25  C    4.056231   4.807134   2.441282   1.387517   0.000000
    26  C    4.924231   5.144684   2.811010   2.397651   1.390906
    27  C    4.757896   4.420645   2.418191   2.755747   2.402054
    28  C    3.682024   3.049366   1.421030   2.434015   2.826601
    29  H    2.275773   3.780915   2.138433   1.080821   2.142980
    30  H    4.659976   5.707095   3.417496   2.144955   1.083997
    31  H    5.976807   6.214172   3.895089   3.386415   2.155429
    32  H    5.723159   5.121632   3.387435   3.836874   3.386592
    33  C    4.519379   3.167947   2.677843   3.912251   4.346841
    34  O    5.636827   4.349353   3.697678   4.782110   4.948149
    35  O    4.406961   2.531336   3.140895   4.520543   5.236494
    36  H    3.560224   1.553118   2.678226   4.061304   4.987677
                   26         27         28         29         30
    26  C    0.000000
    27  C    1.388323   0.000000
    28  C    2.445123   1.402226   0.000000
    29  H    3.379640   3.836406   3.405020   0.000000
    30  H    2.156995   3.390719   3.910546   2.468453   0.000000
    31  H    1.084184   2.144340   3.418550   4.284660   2.497651
    32  H    2.149366   1.081614   2.126207   4.917304   4.292456
    33  C    3.762485   2.439211   1.534714   4.802364   5.429822
    34  O    4.074365   2.697426   2.374802   5.749849   5.998672
    35  O    4.872974   3.633022   2.476749   5.229680   6.309068
    36  H    4.891719   3.829198   2.496091   4.614650   6.018791
                   31         32         33         34         35
    31  H    0.000000
    32  H    2.475312   0.000000
    33  C    4.580737   2.518579   0.000000
    34  O    4.672969   2.281015   1.210409   0.000000
    35  O    5.763533   3.796360   1.325428   2.205884   0.000000
    36  H    5.876780   4.243530   1.929939   3.033350   0.996969
                   36
    36  H    0.000000
 Stoichiometry    C17H13NO5
 Framework group  C1[X(C17H13NO5)]
 Deg. of freedom   102
 Full point group                 C1      NOp   1
 Largest Abelian subgroup         C1      NOp   1
 Largest concise Abelian subgroup C1      NOp   1
                         Standard orientation:                         
 ---------------------------------------------------------------------
 Center     Atomic      Atomic             Coordinates (Angstroms)
 Number     Number       Type             X           Y           Z
 ---------------------------------------------------------------------
      1          6           0       -2.365528   -0.006453   -0.006624
      2          6           0       -2.006727    1.350747   -0.102731
      3          6           0       -2.981800    2.360354   -0.146101
      4          6           0       -4.347348    2.113574   -0.103510
      5          6           0       -4.784202    0.778125   -0.013351
      6          6           0       -3.788925   -0.244155    0.032830
      7          7           0       -4.167363   -1.544460    0.119360
      8          6           0       -5.433759   -1.954042    0.165125
      9          6           0       -6.453226   -0.998463    0.123303
     10          6           0       -6.129626    0.344926    0.036007
     11          8           0       -1.599920   -1.035306    0.046820
     12          1           0       -0.604169   -1.066643    0.084853
     13          1           0       -0.953890    1.598638   -0.152753
     14          1           0       -2.641352    3.387955   -0.219193
     15          1           0       -5.067986    2.920558   -0.140088
     16          1           0       -6.921173    1.086190    0.003794
     17          1           0       -7.483555   -1.325215    0.160361
     18          1           0       -5.611105   -3.018340    0.233649
     19          1           0       -3.360568   -2.179119    0.146078
     20          6           0        1.701900   -0.334256   -0.125742
     21          8           0        0.906603   -1.321701    0.195754
     22          8           0        1.274181    0.766694   -0.479540
     23          6           0        3.163608   -0.682538   -0.066076
     24          6           0        3.458827   -2.053931   -0.143955
     25          6           0        4.764447   -2.523312   -0.159468
     26          6           0        5.814968   -1.616382   -0.067245
     27          6           0        5.541992   -0.259732    0.044233
     28          6           0        4.234261    0.246239    0.035904
     29          1           0        2.633857   -2.750074   -0.198567
     30          1           0        4.955600   -3.587517   -0.236773
     31          1           0        6.843177   -1.960213   -0.071859
     32          1           0        6.347015    0.454426    0.152887
     33          6           0        4.201065    1.772051    0.197584
     34          8           0        5.166815    2.340780    0.654710
     35          8           0        3.141091    2.454934   -0.210931
     36          1           0        2.385976    1.850856   -0.453497
 ---------------------------------------------------------------------
 Rotational constants (GHZ):      0.6565698      0.0971287      0.0850397
 Standard basis: 6-311++G(d,p) (5D, 7F)
 There are   597 symmetry adapted basis functions of A   symmetry.
 Integral buffers will be    262144 words long.
 Raffenetti 2 integral format.
 Two-electron integral symmetry is turned on.
   597 basis functions,   945 primitive gaussians,   620 cartesian basis functions
    81 alpha electrons       81 beta electrons
       nuclear repulsion energy      1723.8379507308 Hartrees.
 NAtoms=   36 NActive=   36 NUniq=   36 SFac= 7.50D-01 NAtFMM=   80 NAOKFM=F Big=F
 ------------------------------------------------------------------------------
 Polarizable Continuum Model (PCM)
 =================================
 Model                : PCM.
 Atomic radii         : UFF (Universal Force Field).
 Polarization charges : Total charges.
 Charge compensation  : None.
 Solution method      : Matrix inversion.
 Cavity type          : Scaled VdW (van der Waals Surface) (Alpha=1.100).
 Cavity algorithm     : GePol (No added spheres)
                        Default sphere list used, NSphG=   36.
                        Lebedev-Laikov grids with approx.  5.0 points / Ang**2.
                        Smoothing algorithm: Karplus/York (Gamma=1.0000).
                        Polarization charges: spherical gaussians, with
                                              point-specific exponents (IZeta= 3).
                        Self-potential: point-specific (ISelfS= 7).
                        Self-field    : sphere-specific E.n sum rule (ISelfD= 2).
 1st derivatives      : Analytical E(r).r(x)/FMM algorithm (CHGder, D1EAlg=3).
                        Cavity 1st derivative terms included.
 Solvent              : Water, Eps=  78.355300 Eps(inf)=   1.777849
 ------------------------------------------------------------------------------
 One-electron integrals computed using PRISM.
 NBasis=   597 RedAO= T  NBF=   597
 NBsUse=   593 1.00D-06 NBFU=   593
 Harris functional with IExCor=  402 diagonalized for initial guess.
 ExpMin= 3.60D-02 ExpMax= 8.59D+03 ExpMxC= 1.30D+03 IAcc=3 IRadAn=         0 AccDes= 0.00D+00
 HarFok:  IExCor=  402 AccDes= 0.00D+00 IRadAn=         0 IDoV= 1
 ScaDFX=  1.000000  1.000000  1.000000  1.000000
 FoFCou: FMM=F IPFlag=           0 FMFlag=      100000 FMFlg1=           0
         NFxFlg=           0 DoJE=T BraDBF=F KetDBF=T FulRan=T
         Omega=  0.000000  0.000000  1.000000  0.000000  0.000000 ICntrl=     500 IOpCl=  0
         NMat0=    1 NMatS0=    1 NMatT0=    0 NMatD0=    1 NMtDS0=    0 NMtDT0=    0
         I1Cent=           4 NGrid=           0.
 Petite list used in FoFCou.
 Initial guess orbital symmetries:
       Occupied  (A) (A) (A) (A) (A) (A) (A) (A) (A) (A) (A) (A)
                 (A) (A) (A) (A) (A) (A) (A) (A) (A) (A) (A) (A)
                 (A) (A) (A) (A) (A) (A) (A) (A) (A) (A) (A) (A)
                 (A) (A) (A) (A) (A) (A) (A) (A) (A) (A) (A) (A)
                 (A) (A) (A) (A) (A) (A) (A) (A) (A) (A) (A) (A)
                 (A) (A) (A) (A) (A) (A) (A) (A) (A) (A) (A) (A)
                 (A) (A) (A) (A) (A) (A) (A) (A) (A)
       Virtual   (A) (A) (A) (A) (A) (A) (A) (A) (A) (A) (A) (A)
                 (A) (A) (A) (A) (A) (A) (A) (A) (A) (A) (A) (A)
                 (A) (A) (A) (A) (A) (A) (A) (A) (A) (A) (A) (A)
                 (A) (A) (A) (A) (A) (A) (A) (A) (A) (A) (A) (A)
                 (A) (A) (A) (A) (A) (A) (A) (A) (A) (A) (A) (A)
                 (A) (A) (A) (A) (A) (A) (A) (A) (A) (A) (A) (A)
                 (A) (A) (A) (A) (A) (A) (A) (A) (A) (A) (A) (A)
                 (A) (A) (A) (A) (A) (A) (A) (A) (A) (A) (A) (A)
                 (A) (A) (A) (A) (A) (A) (A) (A) (A) (A) (A) (A)
                 (A) (A) (A) (A) (A) (A) (A) (A) (A) (A) (A) (A)
                 (A) (A) (A) (A) (A) (A) (A) (A) (A) (A) (A) (A)
                 (A) (A) (A) (A) (A) (A) (A) (A) (A) (A) (A) (A)
                 (A) (A) (A) (A) (A) (A) (A) (A) (A) (A) (A) (A)
                 (A) (A) (A) (A) (A) (A) (A) (A) (A) (A) (A) (A)
                 (A) (A) (A) (A) (A) (A) (A) (A) (A) (A) (A) (A)
                 (A) (A) (A) (A) (A) (A) (A) (A) (A) (A) (A) (A)
                 (A) (A) (A) (A) (A) (A) (A) (A) (A) (A) (A) (A)
                 (A) (A) (A) (A) (A) (A) (A) (A) (A) (A) (A) (A)
                 (A) (A) (A) (A) (A) (A) (A) (A) (A) (A) (A) (A)
                 (A) (A) (A) (A) (A) (A) (A) (A) (A) (A) (A) (A)
                 (A) (A) (A) (A) (A) (A) (A) (A) (A) (A) (A) (A)
                 (A) (A) (A) (A) (A) (A) (A) (A) (A) (A) (A) (A)
                 (A) (A) (A) (A) (A) (A) (A) (A) (A) (A) (A) (A)
                 (A) (A) (A) (A) (A) (A) (A) (A) (A) (A) (A) (A)
                 (A) (A) (A) (A) (A) (A) (A) (A) (A) (A) (A) (A)
                 (A) (A) (A) (A) (A) (A) (A) (A) (A) (A) (A) (A)
                 (A) (A) (A) (A) (A) (A) (A) (A) (A) (A) (A) (A)
                 (A) (A) (A) (A) (A) (A) (A) (A) (A) (A) (A) (A)
                 (A) (A) (A) (A) (A) (A) (A) (A) (A) (A) (A) (A)
                 (A) (A) (A) (A) (A) (A) (A) (A) (A) (A) (A) (A)
                 (A) (A) (A) (A) (A) (A) (A) (A) (A) (A) (A) (A)
                 (A) (A) (A) (A) (A) (A) (A) (A) (A) (A) (A) (A)
                 (A) (A) (A) (A) (A) (A) (A) (A) (A) (A) (A) (A)
                 (A) (A) (A) (A) (A) (A) (A) (A) (A) (A) (A) (A)
                 (A) (A) (A) (A) (A) (A) (A) (A) (A) (A) (A) (A)
                 (A) (A) (A) (A) (A) (A) (A) (A) (A) (A) (A) (A)
                 (A) (A) (A) (A) (A) (A) (A) (A) (A) (A) (A) (A)
                 (A) (A) (A) (A) (A) (A) (A) (A) (A) (A) (A) (A)
                 (A) (A) (A) (A) (A) (A) (A) (A) (A) (A) (A) (A)
                 (A) (A) (A) (A) (A) (A) (A) (A) (A) (A) (A) (A)
                 (A) (A) (A) (A) (A) (A) (A) (A) (A) (A) (A) (A)
                 (A) (A) (A) (A) (A) (A) (A) (A) (A) (A) (A) (A)
                 (A) (A) (A) (A) (A) (A) (A) (A)
 The electronic state of the initial guess is 1-A.
 Requested convergence on RMS density matrix=1.00D-08 within 128 cycles.
 Requested convergence on MAX density matrix=1.00D-06.
 Requested convergence on             energy=1.00D-06.
 No special actions if energy rises.
 Error on total polarization charges =  0.01957
 SCF Done:  E(RB3LYP) =  -1086.88291723     A.U. after   15 cycles
             Convg  =    0.5938D-08             -V/T =  2.0039

 **********************************************************************

            Population analysis using the SCF density.

 **********************************************************************

 Orbital symmetries:
       Occupied  (A) (A) (A) (A) (A) (A) (A) (A) (A) (A) (A) (A)
                 (A) (A) (A) (A) (A) (A) (A) (A) (A) (A) (A) (A)
                 (A) (A) (A) (A) (A) (A) (A) (A) (A) (A) (A) (A)
                 (A) (A) (A) (A) (A) (A) (A) (A) (A) (A) (A) (A)
                 (A) (A) (A) (A) (A) (A) (A) (A) (A) (A) (A) (A)
                 (A) (A) (A) (A) (A) (A) (A) (A) (A) (A) (A) (A)
                 (A) (A) (A) (A) (A) (A) (A) (A) (A)
       Virtual   (A) (A) (A) (A) (A) (A) (A) (A) (A) (A) (A) (A)
                 (A) (A) (A) (A) (A) (A) (A) (A) (A) (A) (A) (A)
                 (A) (A) (A) (A) (A) (A) (A) (A) (A) (A) (A) (A)
                 (A) (A) (A) (A) (A) (A) (A) (A) (A) (A) (A) (A)
                 (A) (A) (A) (A) (A) (A) (A) (A) (A) (A) (A) (A)
                 (A) (A) (A) (A) (A) (A) (A) (A) (A) (A) (A) (A)
                 (A) (A) (A) (A) (A) (A) (A) (A) (A) (A) (A) (A)
                 (A) (A) (A) (A) (A) (A) (A) (A) (A) (A) (A) (A)
                 (A) (A) (A) (A) (A) (A) (A) (A) (A) (A) (A) (A)
                 (A) (A) (A) (A) (A) (A) (A) (A) (A) (A) (A) (A)
                 (A) (A) (A) (A) (A) (A) (A) (A) (A) (A) (A) (A)
                 (A) (A) (A) (A) (A) (A) (A) (A) (A) (A) (A) (A)
                 (A) (A) (A) (A) (A) (A) (A) (A) (A) (A) (A) (A)
                 (A) (A) (A) (A) (A) (A) (A) (A) (A) (A) (A) (A)
                 (A) (A) (A) (A) (A) (A) (A) (A) (A) (A) (A) (A)
                 (A) (A) (A) (A) (A) (A) (A) (A) (A) (A) (A) (A)
                 (A) (A) (A) (A) (A) (A) (A) (A) (A) (A) (A) (A)
                 (A) (A) (A) (A) (A) (A) (A) (A) (A) (A) (A) (A)
                 (A) (A) (A) (A) (A) (A) (A) (A) (A) (A) (A) (A)
                 (A) (A) (A) (A) (A) (A) (A) (A) (A) (A) (A) (A)
                 (A) (A) (A) (A) (A) (A) (A) (A) (A) (A) (A) (A)
                 (A) (A) (A) (A) (A) (A) (A) (A) (A) (A) (A) (A)
                 (A) (A) (A) (A) (A) (A) (A) (A) (A) (A) (A) (A)
                 (A) (A) (A) (A) (A) (A) (A) (A) (A) (A) (A) (A)
                 (A) (A) (A) (A) (A) (A) (A) (A) (A) (A) (A) (A)
                 (A) (A) (A) (A) (A) (A) (A) (A) (A) (A) (A) (A)
                 (A) (A) (A) (A) (A) (A) (A) (A) (A) (A) (A) (A)
                 (A) (A) (A) (A) (A) (A) (A) (A) (A) (A) (A) (A)
                 (A) (A) (A) (A) (A) (A) (A) (A) (A) (A) (A) (A)
                 (A) (A) (A) (A) (A) (A) (A) (A) (A) (A) (A) (A)
                 (A) (A) (A) (A) (A) (A) (A) (A) (A) (A) (A) (A)
                 (A) (A) (A) (A) (A) (A) (A) (A) (A) (A) (A) (A)
                 (A) (A) (A) (A) (A) (A) (A) (A) (A) (A) (A) (A)
                 (A) (A) (A) (A) (A) (A) (A) (A) (A) (A) (A) (A)
                 (A) (A) (A) (A) (A) (A) (A) (A) (A) (A) (A) (A)
                 (A) (A) (A) (A) (A) (A) (A) (A) (A) (A) (A) (A)
                 (A) (A) (A) (A) (A) (A) (A) (A) (A) (A) (A) (A)
                 (A) (A) (A) (A) (A) (A) (A) (A) (A) (A) (A) (A)
                 (A) (A) (A) (A) (A) (A) (A) (A) (A) (A) (A) (A)
                 (A) (A) (A) (A) (A) (A) (A) (A) (A) (A) (A) (A)
                 (A) (A) (A) (A) (A) (A) (A) (A) (A) (A) (A) (A)
                 (A) (A) (A) (A) (A) (A) (A) (A) (A) (A) (A) (A)
                 (A) (A) (A) (A) (A) (A) (A) (A)
 The electronic state is 1-A.
 Alpha  occ. eigenvalues --  -19.15654 -19.15560 -19.11376 -19.10775 -19.08964
 Alpha  occ. eigenvalues --  -14.43071 -10.31569 -10.29315 -10.27310 -10.27298
 Alpha  occ. eigenvalues --  -10.25923 -10.23436 -10.22853 -10.22061 -10.21136
 Alpha  occ. eigenvalues --  -10.20702 -10.20125 -10.19436 -10.19270 -10.19002
 Alpha  occ. eigenvalues --  -10.18949 -10.18873 -10.18730  -1.10912  -1.09833
 Alpha  occ. eigenvalues --   -1.06991  -1.03913  -1.02517  -0.96653  -0.88551
 Alpha  occ. eigenvalues --   -0.87654  -0.85349  -0.79964  -0.77791  -0.77090
 Alpha  occ. eigenvalues --   -0.76668  -0.69882  -0.68147  -0.67295  -0.65889
 Alpha  occ. eigenvalues --   -0.63649  -0.61438  -0.61127  -0.58012  -0.57537
 Alpha  occ. eigenvalues --   -0.56644  -0.54123  -0.53553  -0.50688  -0.49697
 Alpha  occ. eigenvalues --   -0.49265  -0.48544  -0.48353  -0.47484  -0.47151
 Alpha  occ. eigenvalues --   -0.46346  -0.45577  -0.44993  -0.44305  -0.43729
 Alpha  occ. eigenvalues --   -0.43186  -0.42607  -0.42283  -0.40565  -0.39789
 Alpha  occ. eigenvalues --   -0.38948  -0.38447  -0.37618  -0.37414  -0.36156
 Alpha  occ. eigenvalues --   -0.35887  -0.33448  -0.32580  -0.29533  -0.29106
 Alpha  occ. eigenvalues --   -0.28962  -0.28778  -0.27796  -0.27344  -0.26329
 Alpha  occ. eigenvalues --   -0.23826
 Alpha virt. eigenvalues --   -0.10778  -0.06880  -0.05648  -0.04100  -0.01279
 Alpha virt. eigenvalues --   -0.01011  -0.00279   0.00259   0.00949   0.01432
 Alpha virt. eigenvalues --    0.02273   0.02326   0.02754   0.03189   0.03480
 Alpha virt. eigenvalues --    0.04024   0.04263   0.04274   0.04351   0.04593
 Alpha virt. eigenvalues --    0.05112   0.05911   0.06182   0.06509   0.06699
 Alpha virt. eigenvalues --    0.06800   0.07535   0.08009   0.08487   0.08806
 Alpha virt. eigenvalues --    0.09308   0.09498   0.09899   0.10167   0.10461
 Alpha virt. eigenvalues --    0.10889   0.11086   0.11249   0.11427   0.11854
 Alpha virt. eigenvalues --    0.11947   0.12118   0.12376   0.12453   0.12915
 Alpha virt. eigenvalues --    0.13123   0.13441   0.13659   0.14126   0.14345
 Alpha virt. eigenvalues --    0.14468   0.14751   0.15014   0.15158   0.15591
 Alpha virt. eigenvalues --    0.16016   0.16314   0.16432   0.16761   0.16849
 Alpha virt. eigenvalues --    0.17210   0.17580   0.18124   0.18257   0.18402
 Alpha virt. eigenvalues --    0.18793   0.19519   0.19707   0.20029   0.20059
 Alpha virt. eigenvalues --    0.20382   0.20533   0.20921   0.21155   0.21580
 Alpha virt. eigenvalues --    0.22514   0.22591   0.22837   0.22913   0.23147
 Alpha virt. eigenvalues --    0.23396   0.23593   0.23765   0.24029   0.24318
 Alpha virt. eigenvalues --    0.24974   0.25482   0.25640   0.25987   0.26209
 Alpha virt. eigenvalues --    0.26332   0.26718   0.27010   0.27085   0.27295
 Alpha virt. eigenvalues --    0.27968   0.28193   0.28378   0.28423   0.29009
 Alpha virt. eigenvalues --    0.29356   0.29591   0.29730   0.29967   0.30508
 Alpha virt. eigenvalues --    0.30668   0.31045   0.31156   0.31402   0.31726
 Alpha virt. eigenvalues --    0.32206   0.32419   0.32691   0.33077   0.33386
 Alpha virt. eigenvalues --    0.34047   0.34364   0.34607   0.35125   0.35380
 Alpha virt. eigenvalues --    0.35597   0.36349   0.36584   0.37484   0.37987
 Alpha virt. eigenvalues --    0.38499   0.39104   0.39224   0.40205   0.40481
 Alpha virt. eigenvalues --    0.41325   0.41425   0.41961   0.43213   0.43886
 Alpha virt. eigenvalues --    0.44737   0.46083   0.46317   0.46707   0.47930
 Alpha virt. eigenvalues --    0.49053   0.49566   0.50834   0.52010   0.52106
 Alpha virt. eigenvalues --    0.52391   0.52594   0.53302   0.53703   0.54121
 Alpha virt. eigenvalues --    0.54617   0.54944   0.55801   0.56000   0.57148
 Alpha virt. eigenvalues --    0.57516   0.57904   0.58091   0.58499   0.58864
 Alpha virt. eigenvalues --    0.59539   0.59584   0.60388   0.60996   0.62133
 Alpha virt. eigenvalues --    0.62744   0.62936   0.63139   0.64072   0.64191
 Alpha virt. eigenvalues --    0.65298   0.65626   0.66838   0.67514   0.68229
 Alpha virt. eigenvalues --    0.68885   0.69389   0.70234   0.70612   0.71507
 Alpha virt. eigenvalues --    0.71899   0.72366   0.72949   0.73197   0.74227
 Alpha virt. eigenvalues --    0.74456   0.75080   0.75876   0.76179   0.77272
 Alpha virt. eigenvalues --    0.77657   0.79136   0.79510   0.80861   0.82506
 Alpha virt. eigenvalues --    0.82912   0.83840   0.84118   0.84327   0.84658
 Alpha virt. eigenvalues --    0.85321   0.85680   0.85879   0.86663   0.87334
 Alpha virt. eigenvalues --    0.88018   0.88373   0.89059   0.89726   0.90548
 Alpha virt. eigenvalues --    0.90582   0.91076   0.91559   0.92363   0.93176
 Alpha virt. eigenvalues --    0.93500   0.94149   0.95225   0.95778   0.96168
 Alpha virt. eigenvalues --    0.97749   0.98173   0.98952   1.00435   1.00630
 Alpha virt. eigenvalues --    1.01528   1.02434   1.03030   1.03665   1.04642
 Alpha virt. eigenvalues --    1.06149   1.06968   1.07632   1.08170   1.08980
 Alpha virt. eigenvalues --    1.09140   1.09851   1.10233   1.11044   1.11118
 Alpha virt. eigenvalues --    1.11963   1.12579   1.13815   1.14745   1.15177
 Alpha virt. eigenvalues --    1.15293   1.16528   1.17813   1.20112   1.20432
 Alpha virt. eigenvalues --    1.21683   1.22148   1.23026   1.23656   1.24070
 Alpha virt. eigenvalues --    1.26312   1.28515   1.31534   1.33198   1.34228
 Alpha virt. eigenvalues --    1.35022   1.36311   1.37217   1.39215   1.41929
 Alpha virt. eigenvalues --    1.44217   1.44794   1.45980   1.47277   1.47610
 Alpha virt. eigenvalues --    1.48571   1.49864   1.51358   1.51827   1.52178
 Alpha virt. eigenvalues --    1.52596   1.52745   1.52890   1.53389   1.53897
 Alpha virt. eigenvalues --    1.54720   1.55536   1.56489   1.57501   1.58320
 Alpha virt. eigenvalues --    1.58581   1.59332   1.59820   1.63563   1.63896
 Alpha virt. eigenvalues --    1.64498   1.64786   1.66170   1.66954   1.67214
 Alpha virt. eigenvalues --    1.68362   1.69439   1.70368   1.71083   1.72115
 Alpha virt. eigenvalues --    1.73202   1.73705   1.74164   1.75228   1.77078
 Alpha virt. eigenvalues --    1.77661   1.77776   1.78842   1.80146   1.80626
 Alpha virt. eigenvalues --    1.82353   1.83204   1.83908   1.85824   1.86939
 Alpha virt. eigenvalues --    1.87149   1.88018   1.88717   1.89549   1.90620
 Alpha virt. eigenvalues --    1.91363   1.91759   1.92676   1.93466   1.93801
 Alpha virt. eigenvalues --    1.94942   1.95993   1.96381   1.96909   1.97611
 Alpha virt. eigenvalues --    1.97693   1.99060   2.00212   2.02287   2.04056
 Alpha virt. eigenvalues --    2.04576   2.05466   2.06139   2.08694   2.10802
 Alpha virt. eigenvalues --    2.11872   2.12494   2.14342   2.16811   2.18496
 Alpha virt. eigenvalues --    2.20916   2.22069   2.24749   2.26512   2.26917
 Alpha virt. eigenvalues --    2.28608   2.31041   2.34273   2.34821   2.36377
 Alpha virt. eigenvalues --    2.41224   2.41860   2.44478   2.45024   2.46481
 Alpha virt. eigenvalues --    2.47672   2.49190   2.50335   2.50800   2.53975
 Alpha virt. eigenvalues --    2.55399   2.59134   2.61739   2.62122   2.62978
 Alpha virt. eigenvalues --    2.63563   2.64305   2.65857   2.67710   2.69624
 Alpha virt. eigenvalues --    2.70475   2.70720   2.72144   2.73276   2.73412
 Alpha virt. eigenvalues --    2.73939   2.74530   2.74607   2.74983   2.76520
 Alpha virt. eigenvalues --    2.76857   2.78183   2.78412   2.78705   2.79113
 Alpha virt. eigenvalues --    2.79927   2.80640   2.80919   2.81927   2.83066
 Alpha virt. eigenvalues --    2.84403   2.85470   2.86132   2.86509   2.86797
 Alpha virt. eigenvalues --    2.87804   2.87954   2.88462   2.91107   2.91834
 Alpha virt. eigenvalues --    2.93270   2.96908   2.97871   2.98800   2.99831
 Alpha virt. eigenvalues --    3.02544   3.02793   3.05033   3.05395   3.07369
 Alpha virt. eigenvalues --    3.08730   3.10263   3.12747   3.14306   3.15690
 Alpha virt. eigenvalues --    3.17768   3.18861   3.20509   3.22366   3.23328
 Alpha virt. eigenvalues --    3.27530   3.28451   3.29241   3.29624   3.32426
 Alpha virt. eigenvalues --    3.33623   3.34829   3.36873   3.37641   3.39336
 Alpha virt. eigenvalues --    3.40266   3.41377   3.43914   3.45946   3.47726
 Alpha virt. eigenvalues --    3.52222   3.53670   3.53904   3.55273   3.58156
 Alpha virt. eigenvalues --    3.59185   3.60507   3.63230   3.65341   3.69174
 Alpha virt. eigenvalues --    3.74117   3.77777   3.79770   3.83520   3.94119
 Alpha virt. eigenvalues --    3.95991   4.00410   4.02954   4.03796   4.04617
 Alpha virt. eigenvalues --    4.07971   4.09137   4.09710   4.14375   4.15723
 Alpha virt. eigenvalues --    4.19504   4.22836   4.27550   4.35578   4.48173
 Alpha virt. eigenvalues --    4.78566   4.79626   4.83150   4.99453   5.01763
 Alpha virt. eigenvalues --    5.05173   5.08607   5.09746   5.17449   5.20338
 Alpha virt. eigenvalues --    5.24989   5.30621   5.43075   5.47965   5.62572
 Alpha virt. eigenvalues --    5.67829   5.91908   5.96240   6.04915  23.56922
 Alpha virt. eigenvalues --   23.58367  23.80874  23.81435  23.85536  23.90878
 Alpha virt. eigenvalues --   23.91790  23.93119  23.93724  23.96524  23.99435
 Alpha virt. eigenvalues --   24.03610  24.03776  24.08895  24.10186  24.14935
 Alpha virt. eigenvalues --   24.18365  35.62374  49.89474  49.94176  50.01590
 Alpha virt. eigenvalues --   50.03291  50.07111
          Condensed to atoms (all electrons):
              1          2          3          4          5          6
     1  C   14.494704  -0.253905  -4.876140   1.463196  -0.850968  -1.906418
     2  C   -0.253905  14.816177  -3.602420   1.820526  -1.524159  -5.858175
     3  C   -4.876140  -3.602420  13.126335  -1.510018   0.122915   2.487210
     4  C    1.463196   1.820526  -1.510018  14.277893  -5.051799  -5.611675
     5  C   -0.850968  -1.524159   0.122915  -5.051799  12.011903   2.978480
     6  C   -1.906418  -5.858175   2.487210  -5.611675   2.978480  19.285523
     7  N   -0.014662   0.119278  -0.007348   0.126479  -0.152588  -0.287046
     8  C   -0.090842   0.079384   0.154857   0.378909  -0.057052  -2.045160
     9  C    0.413496   0.027484  -0.289863  -0.332477   0.250894   1.864590
    10  C   -1.791084  -0.140226   0.357693   0.505506  -2.127475  -4.146348
    11  O    0.185376  -0.068298   0.086782  -0.010880  -0.041169  -0.326956
    12  H    0.174207  -0.525415   0.004903  -0.076675   0.023855   0.373740
    13  H   -0.226809   0.641400  -0.026318   0.124338  -0.037693  -0.132589
    14  H    0.023746  -0.041571   0.425772  -0.179029   0.034337   0.041824
    15  H    0.035529   0.011814  -0.095479   0.509313  -0.079609   0.011774
    16  H   -0.037426  -0.015218   0.047908  -0.036783  -0.033483   0.032574
    17  H   -0.006426   0.001915  -0.000320  -0.005372  -0.018554  -0.014914
    18  H    0.006300  -0.000094   0.006612  -0.016484   0.000840   0.008110
    19  H    0.039606   0.025229   0.010929   0.001956  -0.007622  -0.042827
    20  C   -0.244924   0.810719  -0.186709   0.108420  -0.046287  -0.555540
    21  O    0.029504  -0.085839  -0.015949   0.002068  -0.004178  -0.013033
    22  O   -0.035171   0.126759  -0.043203   0.000708  -0.004207   0.001052
    23  C   -0.057876  -0.385777   0.162070  -0.124204   0.035935   0.492389
    24  C    0.125252  -0.022353  -0.082310   0.003614  -0.006851  -0.030208
    25  C    0.046291  -0.045447  -0.003027  -0.001480   0.001143   0.012517
    26  C   -0.012808   0.010465   0.001639   0.000240  -0.000157  -0.001961
    27  C   -0.006099   0.000792   0.001899   0.000475   0.000073  -0.000012
    28  C   -0.123036  -0.056188   0.149404   0.003015   0.012858   0.016589
    29  H   -0.007478   0.013594   0.001231   0.000298   0.000217  -0.004761
    30  H    0.000446  -0.000794  -0.000006  -0.000031   0.000009   0.000423
    31  H   -0.000167   0.000144   0.000045  -0.000001   0.000001   0.000004
    32  H    0.000648  -0.000321  -0.000211  -0.000033  -0.000002   0.000100
    33  C    0.087110  -0.052000  -0.035277  -0.002441   0.001669   0.004069
    34  O   -0.000271   0.000080   0.000174   0.000011  -0.000002   0.000001
    35  O    0.001764   0.014327  -0.007843  -0.000482  -0.000098   0.000078
    36  H   -0.012952  -0.021635   0.021417  -0.001590   0.000536   0.004600
              7          8          9         10         11         12
     1  C   -0.014662  -0.090842   0.413496  -1.791084   0.185376   0.174207
     2  C    0.119278   0.079384   0.027484  -0.140226  -0.068298  -0.525415
     3  C   -0.007348   0.154857  -0.289863   0.357693   0.086782   0.004903
     4  C    0.126479   0.378909  -0.332477   0.505506  -0.010880  -0.076675
     5  C   -0.152588  -0.057052   0.250894  -2.127475  -0.041169   0.023855
     6  C   -0.287046  -2.045160   1.864590  -4.146348  -0.326956   0.373740
     7  N    6.717998   0.275119  -0.168066   0.050522   0.058513  -0.006021
     8  C    0.275119   6.665393  -0.636425   0.846980   0.014730   0.001423
     9  C   -0.168066  -0.636425   7.109426  -1.828266   0.013970  -0.004427
    10  C    0.050522   0.846980  -1.828266  13.000445  -0.038523   0.013493
    11  O    0.058513   0.014730   0.013970  -0.038523   8.583220   0.055421
    12  H   -0.006021   0.001423  -0.004427   0.013493   0.055421   0.341736
    13  H    0.002921  -0.004603   0.007393  -0.042563   0.004672  -0.022623
    14  H    0.000552   0.002751  -0.003480   0.028337  -0.001434   0.000901
    15  H   -0.004857  -0.005172   0.041447  -0.077056   0.000486  -0.000356
    16  H    0.002667   0.008300  -0.075045   0.413471   0.000094   0.000382
    17  H    0.015320  -0.043632   0.392693   0.024912   0.000386  -0.000145
    18  H   -0.057751   0.410638  -0.008527  -0.015899   0.001730   0.001403
    19  H    0.367887  -0.083075   0.013266  -0.028572   0.007276  -0.013480
    20  C   -0.002450  -0.000466  -0.000089  -0.007127  -0.013142  -0.237458
    21  O    0.005919   0.002022   0.000380  -0.001174   0.165814   0.000847
    22  O   -0.001129  -0.000498  -0.000149   0.000551  -0.005819  -0.004695
    23  C   -0.007534  -0.000168  -0.001350   0.008427  -0.047444   0.174902
    24  C    0.000584  -0.000738  -0.000282   0.000174  -0.020923  -0.079401
    25  C   -0.000161  -0.000205   0.000022   0.000046  -0.003219   0.013552
    26  C   -0.000017   0.000008  -0.000001  -0.000009  -0.000331  -0.009928
    27  C   -0.000041  -0.000042   0.000009   0.000004   0.001281  -0.006100
    28  C   -0.001013  -0.000629   0.000532  -0.000674   0.027128   0.048820
    29  H   -0.000501  -0.000055   0.000059  -0.000054   0.000368  -0.010250
    30  H    0.000008   0.000001  -0.000001   0.000004   0.000030   0.001093
    31  H   -0.000001   0.000000   0.000000   0.000000  -0.000011  -0.000238
    32  H    0.000001   0.000001   0.000000   0.000001  -0.000002   0.000398
    33  C   -0.000038  -0.000184   0.000023   0.000185  -0.002390   0.011803
    34  O    0.000000   0.000000   0.000000   0.000000   0.000012   0.000247
    35  O   -0.000004   0.000001  -0.000002   0.000012  -0.000947  -0.003682
    36  H   -0.000294  -0.000023  -0.000016  -0.000031   0.000443   0.003390
             13         14         15         16         17         18
     1  C   -0.226809   0.023746   0.035529  -0.037426  -0.006426   0.006300
     2  C    0.641400  -0.041571   0.011814  -0.015218   0.001915  -0.000094
     3  C   -0.026318   0.425772  -0.095479   0.047908  -0.000320   0.006612
     4  C    0.124338  -0.179029   0.509313  -0.036783  -0.005372  -0.016484
     5  C   -0.037693   0.034337  -0.079609  -0.033483  -0.018554   0.000840
     6  C   -0.132589   0.041824   0.011774   0.032574  -0.014914   0.008110
     7  N    0.002921   0.000552  -0.004857   0.002667   0.015320  -0.057751
     8  C   -0.004603   0.002751  -0.005172   0.008300  -0.043632   0.410638
     9  C    0.007393  -0.003480   0.041447  -0.075045   0.392693  -0.008527
    10  C   -0.042563   0.028337  -0.077056   0.413471   0.024912  -0.015899
    11  O    0.004672  -0.001434   0.000486   0.000094   0.000386   0.001730
    12  H   -0.022623   0.000901  -0.000356   0.000382  -0.000145   0.001403
    13  H    0.538979  -0.034009   0.006757  -0.000788   0.000020  -0.000272
    14  H   -0.034009   0.500835  -0.019605   0.001456  -0.000096   0.000050
    15  H    0.006757  -0.019605   0.480491  -0.000349  -0.000124  -0.000034
    16  H   -0.000788   0.001456  -0.000349   0.444992  -0.007454   0.000945
    17  H    0.000020  -0.000096  -0.000124  -0.007454   0.429217  -0.003727
    18  H   -0.000272   0.000050  -0.000034   0.000945  -0.003727   0.406184
    19  H   -0.002408   0.000743  -0.000185   0.000182   0.000399  -0.005117
    20  C    0.043900  -0.002131   0.000299  -0.000034   0.000023  -0.000459
    21  O    0.023814  -0.000963   0.000057  -0.000005  -0.000002   0.000084
    22  O   -0.056747   0.003607  -0.000040  -0.000002  -0.000003  -0.000013
    23  C   -0.077354   0.005625  -0.001250   0.000250   0.000024   0.000523
    24  C    0.018319  -0.001232   0.000119  -0.000010  -0.000004  -0.000091
    25  C   -0.000473   0.000009  -0.000008   0.000001   0.000000  -0.000006
    26  C   -0.000051  -0.000003  -0.000001   0.000000   0.000000   0.000000
    27  C    0.007806  -0.000194   0.000006   0.000000   0.000000  -0.000002
    28  C   -0.006905   0.002040  -0.000161  -0.000003   0.000003  -0.000014
    29  H   -0.000090   0.000021  -0.000002  -0.000001   0.000001  -0.000032
    30  H    0.000041  -0.000001   0.000000   0.000000   0.000000   0.000001
    31  H   -0.000019   0.000001   0.000000   0.000000   0.000000   0.000000
    32  H   -0.000086   0.000002   0.000000   0.000000   0.000000   0.000000
    33  C   -0.002888  -0.000114  -0.000004   0.000001   0.000000  -0.000006
    34  O   -0.000155   0.000011   0.000000   0.000000   0.000000   0.000000
    35  O   -0.007635   0.000510  -0.000002   0.000000   0.000000   0.000000
    36  H    0.007725  -0.000778  -0.000025   0.000006   0.000001   0.000004
             19         20         21         22         23         24
     1  C    0.039606  -0.244924   0.029504  -0.035171  -0.057876   0.125252
     2  C    0.025229   0.810719  -0.085839   0.126759  -0.385777  -0.022353
     3  C    0.010929  -0.186709  -0.015949  -0.043203   0.162070  -0.082310
     4  C    0.001956   0.108420   0.002068   0.000708  -0.124204   0.003614
     5  C   -0.007622  -0.046287  -0.004178  -0.004207   0.035935  -0.006851
     6  C   -0.042827  -0.555540  -0.013033   0.001052   0.492389  -0.030208
     7  N    0.367887  -0.002450   0.005919  -0.001129  -0.007534   0.000584
     8  C   -0.083075  -0.000466   0.002022  -0.000498  -0.000168  -0.000738
     9  C    0.013266  -0.000089   0.000380  -0.000149  -0.001350  -0.000282
    10  C   -0.028572  -0.007127  -0.001174   0.000551   0.008427   0.000174
    11  O    0.007276  -0.013142   0.165814  -0.005819  -0.047444  -0.020923
    12  H   -0.013480  -0.237458   0.000847  -0.004695   0.174902  -0.079401
    13  H   -0.002408   0.043900   0.023814  -0.056747  -0.077354   0.018319
    14  H    0.000743  -0.002131  -0.000963   0.003607   0.005625  -0.001232
    15  H   -0.000185   0.000299   0.000057  -0.000040  -0.001250   0.000119
    16  H    0.000182  -0.000034  -0.000005  -0.000002   0.000250  -0.000010
    17  H    0.000399   0.000023  -0.000002  -0.000003   0.000024  -0.000004
    18  H   -0.005117  -0.000459   0.000084  -0.000013   0.000523  -0.000091
    19  H    0.318198   0.010041  -0.006860   0.001888   0.000952   0.001558
    20  C    0.010041  12.485165   0.307682   0.197037  -5.761955   0.085648
    21  O   -0.006860   0.307682   8.541404  -0.182279  -0.454324   0.104302
    22  O    0.001888   0.197037  -0.182279   8.338066   0.033683   0.117403
    23  C    0.000952  -5.761955  -0.454324   0.033683  24.062120   1.717228
    24  C    0.001558   0.085648   0.104302   0.117403   1.717228  12.836326
    25  C   -0.000173  -0.563740   0.136276   0.050055  -1.978057  -1.138175
    26  C    0.000055   0.185743  -0.011926  -0.018571   1.143198  -0.400994
    27  C    0.000148  -0.725146  -0.015403  -0.011473  -3.052073   0.796627
    28  C   -0.000748   0.660086   0.003037  -0.175375 -10.381860  -8.326197
    29  H    0.000250   0.044783  -0.012359  -0.002394  -0.061964   0.422831
    30  H   -0.000014  -0.013487   0.001448   0.000786  -0.012100  -0.049907
    31  H    0.000002  -0.007329  -0.000302  -0.000172   0.001644  -0.021755
    32  H   -0.000004  -0.006316   0.000657   0.000872   0.088542   0.058918
    33  C    0.000187  -0.119105   0.006527   0.033504  -0.355770   0.132804
    34  O   -0.000001   0.015950   0.000256   0.000045  -0.189351  -0.020885
    35  O    0.000068  -0.110376  -0.008395  -0.004188   0.190548  -0.010306
    36  H   -0.000023  -0.012300   0.014187   0.066311  -0.149151  -0.000018
             25         26         27         28         29         30
     1  C    0.046291  -0.012808  -0.006099  -0.123036  -0.007478   0.000446
     2  C   -0.045447   0.010465   0.000792  -0.056188   0.013594  -0.000794
     3  C   -0.003027   0.001639   0.001899   0.149404   0.001231  -0.000006
     4  C   -0.001480   0.000240   0.000475   0.003015   0.000298  -0.000031
     5  C    0.001143  -0.000157   0.000073   0.012858   0.000217   0.000009
     6  C    0.012517  -0.001961  -0.000012   0.016589  -0.004761   0.000423
     7  N   -0.000161  -0.000017  -0.000041  -0.001013  -0.000501   0.000008
     8  C   -0.000205   0.000008  -0.000042  -0.000629  -0.000055   0.000001
     9  C    0.000022  -0.000001   0.000009   0.000532   0.000059  -0.000001
    10  C    0.000046  -0.000009   0.000004  -0.000674  -0.000054   0.000004
    11  O   -0.003219  -0.000331   0.001281   0.027128   0.000368   0.000030
    12  H    0.013552  -0.009928  -0.006100   0.048820  -0.010250   0.001093
    13  H   -0.000473  -0.000051   0.007806  -0.006905  -0.000090   0.000041
    14  H    0.000009  -0.000003  -0.000194   0.002040   0.000021  -0.000001
    15  H   -0.000008  -0.000001   0.000006  -0.000161  -0.000002   0.000000
    16  H    0.000001   0.000000   0.000000  -0.000003  -0.000001   0.000000
    17  H    0.000000   0.000000   0.000000   0.000003   0.000001   0.000000
    18  H   -0.000006   0.000000  -0.000002  -0.000014  -0.000032   0.000001
    19  H   -0.000173   0.000055   0.000148  -0.000748   0.000250  -0.000014
    20  C   -0.563740   0.185743  -0.725146   0.660086   0.044783  -0.013487
    21  O    0.136276  -0.011926  -0.015403   0.003037  -0.012359   0.001448
    22  O    0.050055  -0.018571  -0.011473  -0.175375  -0.002394   0.000786
    23  C   -1.978057   1.143198  -3.052073 -10.381860  -0.061964  -0.012100
    24  C   -1.138175  -0.400994   0.796627  -8.326197   0.422831  -0.049907
    25  C    8.071591  -0.346424  -0.194234   1.645709  -0.109727   0.470659
    26  C   -0.346424   7.331636  -0.477946  -1.305812   0.028766  -0.072105
    27  C   -0.194234  -0.477946   9.359409  -0.152713   0.037227   0.001085
    28  C    1.645709  -1.305812  -0.152713  26.303636   0.029270  -0.004818
    29  H   -0.109727   0.028766   0.037227   0.029270   0.487036  -0.013174
    30  H    0.470659  -0.072105   0.001085  -0.004818  -0.013174   0.495359
    31  H   -0.069511   0.476458  -0.053178   0.012980   0.001686  -0.013963
    32  H    0.014942  -0.084405   0.389808  -0.124122   0.000068   0.001805
    33  C    0.390433  -0.303340   0.202597  -2.243092  -0.017364   0.002996
    34  O   -0.003195   0.099486   0.102868  -0.083528   0.000231  -0.000087
    35  O   -0.024462   0.045857   0.076326  -0.243418   0.001230  -0.000246
    36  H    0.006424  -0.005571   0.004498   0.253675   0.000721  -0.000081
             31         32         33         34         35         36
     1  C   -0.000167   0.000648   0.087110  -0.000271   0.001764  -0.012952
     2  C    0.000144  -0.000321  -0.052000   0.000080   0.014327  -0.021635
     3  C    0.000045  -0.000211  -0.035277   0.000174  -0.007843   0.021417
     4  C   -0.000001  -0.000033  -0.002441   0.000011  -0.000482  -0.001590
     5  C    0.000001  -0.000002   0.001669  -0.000002  -0.000098   0.000536
     6  C    0.000004   0.000100   0.004069   0.000001   0.000078   0.004600
     7  N   -0.000001   0.000001  -0.000038   0.000000  -0.000004  -0.000294
     8  C    0.000000   0.000001  -0.000184   0.000000   0.000001  -0.000023
     9  C    0.000000   0.000000   0.000023   0.000000  -0.000002  -0.000016
    10  C    0.000000   0.000001   0.000185   0.000000   0.000012  -0.000031
    11  O   -0.000011  -0.000002  -0.002390   0.000012  -0.000947   0.000443
    12  H   -0.000238   0.000398   0.011803   0.000247  -0.003682   0.003390
    13  H   -0.000019  -0.000086  -0.002888  -0.000155  -0.007635   0.007725
    14  H    0.000001   0.000002  -0.000114   0.000011   0.000510  -0.000778
    15  H    0.000000   0.000000  -0.000004   0.000000  -0.000002  -0.000025
    16  H    0.000000   0.000000   0.000001   0.000000   0.000000   0.000006
    17  H    0.000000   0.000000   0.000000   0.000000   0.000000   0.000001
    18  H    0.000000   0.000000  -0.000006   0.000000   0.000000   0.000004
    19  H    0.000002  -0.000004   0.000187  -0.000001   0.000068  -0.000023
    20  C   -0.007329  -0.006316  -0.119105   0.015950  -0.110376  -0.012300
    21  O   -0.000302   0.000657   0.006527   0.000256  -0.008395   0.014187
    22  O   -0.000172   0.000872   0.033504   0.000045  -0.004188   0.066311
    23  C    0.001644   0.088542  -0.355770  -0.189351   0.190548  -0.149151
    24  C   -0.021755   0.058918   0.132804  -0.020885  -0.010306  -0.000018
    25  C   -0.069511   0.014942   0.390433  -0.003195  -0.024462   0.006424
    26  C    0.476458  -0.084405  -0.303340   0.099486   0.045857  -0.005571
    27  C   -0.053178   0.389808   0.202597   0.102868   0.076326   0.004498
    28  C    0.012980  -0.124122  -2.243092  -0.083528  -0.243418   0.253675
    29  H    0.001686   0.000068  -0.017364   0.000231   0.001230   0.000721
[...]
     1  C   -0.120781  -0.360654   0.632167  -2.329125   0.418178   0.032505
     2  C    0.124598  -0.021607   0.153389  -0.648829   0.058618  -0.576273
     3  C    0.006479   0.255085  -0.450643   0.895500   0.014180   0.161541
     4  C    0.087598   0.278000  -0.405486   0.805678   0.037328  -0.110169
     5  C   -0.110143   0.003498   0.194979  -2.069279  -0.073469   0.017681
     6  C   -0.243381  -2.015476   2.135876  -4.855909  -0.549099   0.459343
     7  N    6.711632   0.266456  -0.193849   0.116725   0.071741  -0.007398
     8  C    0.266456   6.703973  -0.676795   1.106140   0.021043   0.006074
     9  C   -0.193849  -0.676795   7.263857  -2.111223   0.009186  -0.006755
    10  C    0.116725   1.106140  -2.111223  13.618466  -0.043859   0.009100
    11  O    0.071741   0.021043   0.009186  -0.043859   8.393591   0.095672
    12  H   -0.007398   0.006074  -0.006755   0.009100   0.095672   0.360099
    13  H    0.003473   0.001195   0.004855  -0.036608  -0.000372  -0.047458
    14  H    0.000072   0.000286  -0.001800   0.024152  -0.001648   0.004674
    15  H   -0.004585  -0.000878   0.033940  -0.077745   0.000714  -0.000497
    16  H    0.004815   0.001074  -0.081413   0.413525   0.000057   0.000551
    17  H    0.013356  -0.039026   0.393285   0.017515   0.000178  -0.000050
    18  H   -0.056284   0.397332  -0.000153  -0.013573   0.001371   0.001773
    19  H    0.374264  -0.074132   0.013382  -0.027374   0.002490  -0.008325
    20  C   -0.001897  -0.005262   0.003662  -0.011218  -0.025727  -0.042260
    21  O    0.002279   0.001655  -0.000231   0.000673   0.095775   0.019105
    22  O   -0.000303  -0.000706   0.000158  -0.000669   0.001205  -0.003420
    23  C   -0.002677  -0.000143  -0.001999   0.004557  -0.031044   0.048142
    24  C    0.000314  -0.000665   0.000253  -0.001044   0.031194  -0.133435
    25  C   -0.000058  -0.000184   0.000003   0.000002   0.003454  -0.035402
    26  C   -0.000008  -0.000009   0.000003  -0.000017   0.000032  -0.006487
    27  C   -0.000046  -0.000002   0.000000   0.000035   0.000752   0.003326
    28  C   -0.000876  -0.000200  -0.000041   0.001025  -0.009465   0.074935
    29  H   -0.000432  -0.000055   0.000014   0.000124  -0.000126  -0.010923
    30  H    0.000009   0.000003  -0.000002   0.000001   0.000044   0.001045
    31  H    0.000000   0.000000   0.000000   0.000000  -0.000010  -0.000265
    32  H    0.000001   0.000001   0.000000   0.000000   0.000011   0.000176
    33  C   -0.000030  -0.000157   0.000071  -0.000190  -0.001218   0.008684
    34  O    0.000000   0.000000   0.000000   0.000000   0.000005   0.000088
    35  O   -0.000001  -0.000007   0.000002   0.000008  -0.000578  -0.002778
    36  H   -0.000050   0.000175  -0.000168   0.000420   0.001577   0.000932
             13         14         15         16         17         18
     1  C   -0.566555   0.104320   0.028947  -0.039581  -0.003827  -0.003571
     2  C    0.936967  -0.086227   0.029957  -0.027781   0.001570  -0.005854
     3  C    0.064896   0.375023  -0.091976   0.058502  -0.001613   0.010369
     4  C    0.174900  -0.189486   0.539685  -0.036848   0.000480  -0.019863
     5  C   -0.032049   0.041406  -0.111914  -0.027054  -0.017928   0.002869
     6  C   -0.261830   0.070447   0.008028   0.030201  -0.015513   0.017742
     7  N    0.003473   0.000072  -0.004585   0.004815   0.013356  -0.056284
     8  C    0.001195   0.000286  -0.000878   0.001074  -0.039026   0.397332
     9  C    0.004855  -0.001800   0.033940  -0.081413   0.393285  -0.000153
    10  C   -0.036608   0.024152  -0.077745   0.413525   0.017515  -0.013573
    11  O   -0.000372  -0.001648   0.000714   0.000057   0.000178   0.001371
    12  H   -0.047458   0.004674  -0.000497   0.000551  -0.000050   0.001773
    13  H    0.596219  -0.032255   0.006113  -0.000882  -0.000018  -0.000207
    14  H   -0.032255   0.485224  -0.016222   0.001481  -0.000093   0.000028
    15  H    0.006113  -0.016222   0.476643   0.000382   0.000041   0.000089
    16  H   -0.000882   0.001481   0.000382   0.446586  -0.007920   0.000639
    17  H   -0.000018  -0.000093   0.000041  -0.007920   0.426490  -0.003396
    18  H   -0.000207   0.000028   0.000089   0.000639  -0.003396   0.400739
    19  H   -0.001264   0.000457  -0.000251   0.000210  -0.000024  -0.004656
    20  C    0.000677   0.004104  -0.000335  -0.000127   0.000020  -0.000513
    21  O    0.023072  -0.000087  -0.000037   0.000006  -0.000002   0.000073
    22  O   -0.056997   0.002145  -0.000089   0.000000  -0.000001  -0.000021
    23  C   -0.013616  -0.003969   0.000303   0.000147   0.000008   0.000249
    24  C    0.042322  -0.002305   0.000176  -0.000025  -0.000001  -0.000144
    25  C    0.000212  -0.000157  -0.000002   0.000000   0.000000  -0.000022
    26  C    0.000865  -0.000054   0.000002   0.000000   0.000000  -0.000001
    27  C    0.008625   0.000092  -0.000015   0.000001   0.000000   0.000001
    28  C   -0.044357   0.005510  -0.000508   0.000037   0.000002   0.000033
    29  H    0.001217  -0.000021  -0.000005  -0.000001   0.000000  -0.000030
    30  H   -0.000041  -0.000002   0.000000   0.000000   0.000000   0.000001
    31  H    0.000013   0.000000   0.000000   0.000000   0.000000   0.000000
    32  H   -0.000079  -0.000002   0.000000   0.000000   0.000000   0.000000
    33  C   -0.007603  -0.000196   0.000002   0.000001   0.000000  -0.000004
    34  O   -0.000163   0.000067  -0.000001   0.000000   0.000000   0.000000
    35  O   -0.009455   0.000258  -0.000003   0.000000   0.000000   0.000000
    36  H    0.006743  -0.000340   0.000045   0.000002  -0.000001   0.000006
             19         20         21         22         23         24
     1  C    0.061209   0.247336   0.008952   0.064893  -0.498436  -0.035556
     2  C    0.002367   0.307683  -0.089790   0.031596   0.186121   0.139386
     3  C   -0.001907  -0.204577   0.033714  -0.079339   0.091916  -0.063097
     4  C    0.004514   0.073075  -0.011109   0.008033  -0.007876   0.018169
     5  C   -0.005725   0.001741   0.012342  -0.006746  -0.058789  -0.008159
     6  C   -0.032402  -0.359590   0.044521  -0.020913   0.175859  -0.100342
     7  N    0.374264  -0.001897   0.002279  -0.000303  -0.002677   0.000314
     8  C   -0.074132  -0.005262   0.001655  -0.000706  -0.000143  -0.000665
     9  C    0.013382   0.003662  -0.000231   0.000158  -0.001999   0.000253
    10  C   -0.027374  -0.011218   0.000673  -0.000669   0.004557  -0.001044
    11  O    0.002490  -0.025727   0.095775   0.001205  -0.031044   0.031194
    12  H   -0.008325  -0.042260   0.019105  -0.003420   0.048142  -0.133435
    13  H   -0.001264   0.000677   0.023072  -0.056997  -0.013616   0.042322
    14  H    0.000457   0.004104  -0.000087   0.002145  -0.003969  -0.002305
    15  H   -0.000251  -0.000335  -0.000037  -0.000089   0.000303   0.000176
    16  H    0.000210  -0.000127   0.000006   0.000000   0.000147  -0.000025
    17  H   -0.000024   0.000020  -0.000002  -0.000001   0.000008  -0.000001
    18  H   -0.004656  -0.000513   0.000073  -0.000021   0.000249  -0.000144
    19  H    0.307848   0.001105  -0.002321   0.000869   0.003661   0.000737
    20  C    0.001105  22.337226   0.501127  -0.195677 -15.027434  -0.872531
    21  O   -0.002321   0.501127   8.444616  -0.175121  -0.652430   0.026144
    22  O    0.000869  -0.195677  -0.175121   8.380365   0.470710   0.082904
    23  C    0.003661 -15.027434  -0.652430   0.470710  26.016455  -0.784910
    24  C    0.000737  -0.872531   0.026144   0.082904  -0.784910   8.959571
    25  C    0.000499  -1.719460   0.105107   0.057782  -0.572265  -0.176443
    26  C    0.000035   0.986099  -0.015387  -0.020674   0.569499  -0.816254
    27  C   -0.000014  -0.491804   0.016367  -0.005316  -2.977842   1.488239
    28  C    0.000093   2.469935   0.077165  -0.182037  -2.679486  -1.721141
    29  H    0.000151   0.082792  -0.003632  -0.004872  -0.133332   0.469198
    30  H   -0.000008  -0.063239   0.001438   0.001374   0.038669  -0.042428
    31  H    0.000002  -0.000559  -0.000279  -0.000282   0.017956  -0.007161
    32  H   -0.000001  -0.038233   0.000479   0.001484   0.046495   0.026410
    33  C    0.000055  -1.236327  -0.000274   0.040190   0.440787  -0.122502
    34  O    0.000000   0.043626   0.000487  -0.000566  -0.083686   0.005460
    35  O    0.000034  -0.185400  -0.008084   0.008243   0.216244  -0.017710
    36  H   -0.000001   0.075985   0.018998   0.056256  -0.217601   0.035948
             25         26         27         28         29         30
     1  C    0.030876  -0.006598   0.008296   0.217350   0.002059  -0.000130
     2  C   -0.022234   0.004969  -0.016259  -0.264087   0.006763  -0.000330
     3  C   -0.010402   0.000614   0.005905   0.037599  -0.002695   0.000020
     4  C   -0.000197   0.000492  -0.001038  -0.038439   0.000345  -0.000022
     5  C    0.000049  -0.000099   0.000647   0.020820   0.001127  -0.000036
     6  C   -0.002363  -0.002929   0.006130   0.108750  -0.004137   0.000291
     7  N   -0.000058  -0.000008  -0.000046  -0.000876  -0.000432   0.000009
     8  C   -0.000184  -0.000009  -0.000002  -0.000200  -0.000055   0.000003
     9  C    0.000003   0.000003   0.000000  -0.000041   0.000014  -0.000002
    10  C    0.000002  -0.000017   0.000035   0.001025   0.000124   0.000001
    11  O    0.003454   0.000032   0.000752  -0.009465  -0.000126   0.000044
    12  H   -0.035402  -0.006487   0.003326   0.074935  -0.010923   0.001045
    13  H    0.000212   0.000865   0.008625  -0.044357   0.001217  -0.000041
    14  H   -0.000157  -0.000054   0.000092   0.005510  -0.000021  -0.000002
    15  H   -0.000002   0.000002  -0.000015  -0.000508  -0.000005   0.000000
    16  H    0.000000   0.000000   0.000001   0.000037  -0.000001   0.000000
    17  H    0.000000   0.000000   0.000000   0.000002   0.000000   0.000000
    18  H   -0.000022  -0.000001   0.000001   0.000033  -0.000030   0.000001
    19  H    0.000499   0.000035  -0.000014   0.000093   0.000151  -0.000008
    20  C   -1.719460   0.986099  -0.491804   2.469935   0.082792  -0.063239
    21  O    0.105107  -0.015387   0.016367   0.077165  -0.003632   0.001438
    22  O    0.057782  -0.020674  -0.005316  -0.182037  -0.004872   0.001374
    23  C   -0.572265   0.569499  -2.977842  -2.679486  -0.133332   0.038669
    24  C   -0.176443  -0.816254   1.488239  -1.721141   0.469198  -0.042428
    25  C    8.450528  -0.319796  -0.411669   0.273459  -0.099504   0.467872
    26  C   -0.319796   7.933974  -0.960315  -1.229968   0.025689  -0.091658
    27  C   -0.411669  -0.960315  10.405153  -1.420428   0.049163  -0.010953
    28  C    0.273459  -1.229968  -1.420428  12.207152  -0.004698   0.014667
    29  H   -0.099504   0.025689   0.049163  -0.004698   0.494318  -0.014854
    30  H    0.467872  -0.091658  -0.010953   0.014667  -0.014854   0.497228
    31  H   -0.068481   0.474462  -0.067041  -0.012075   0.001500  -0.013504
    32  H    0.017791  -0.086743   0.414215  -0.033596   0.000483   0.001285
    33  C    0.464663  -0.254970   0.233472  -2.021773  -0.019146   0.005953
    34  O   -0.008590   0.106045   0.077983  -0.155908   0.000361  -0.000127
    35  O   -0.013663   0.043891   0.048838  -0.156059   0.001391  -0.000165
    36  H   -0.008893  -0.013122   0.067783   0.130124   0.001200   0.000119
             31         32         33         34         35         36
     1  C   -0.000054   0.000076   0.007109   0.000562   0.009716   0.001412
     2  C    0.000045   0.000162  -0.023832   0.000038   0.001712  -0.006284
     3  C    0.000006  -0.000182   0.010573   0.000015  -0.011322   0.004490
     4  C    0.000002  -0.000015   0.003394  -0.000082   0.001018  -0.003119
     5  C    0.000000  -0.000017  -0.000872   0.000014  -0.000158  -0.000764
     6  C   -0.000017   0.000035  -0.000955   0.000095  -0.001018   0.005243
     7  N    0.000000   0.000001  -0.000030   0.000000  -0.000001  -0.000050
     8  C    0.000000   0.000001  -0.000157   0.000000  -0.000007   0.000175
     9  C    0.000000   0.000000   0.000071   0.000000   0.000002  -0.000168
    10  C    0.000000   0.000000  -0.000190   0.000000   0.000008   0.000420
    11  O   -0.000010   0.000011  -0.001218   0.000005  -0.000578   0.001577
    12  H   -0.000265   0.000176   0.008684   0.000088  -0.002778   0.000932
    13  H    0.000013  -0.000079  -0.007603  -0.000163  -0.009455   0.006743
    14  H    0.000000  -0.000002  -0.000196   0.000067   0.000258  -0.000340
    15  H    0.000000   0.000000   0.000002  -0.000001  -0.000003   0.000045
    16  H    0.000000   0.000000   0.000001   0.000000   0.000000   0.000002
    17  H    0.000000   0.000000   0.000000   0.000000   0.000000  -0.000001
    18  H    0.000000   0.000000  -0.000004   0.000000   0.000000   0.000006
    19  H    0.000002  -0.000001   0.000055   0.000000   0.000034  -0.000001
    20  C   -0.000559  -0.038233  -1.236327   0.043626  -0.185400   0.075985
    21  O   -0.000279   0.000479  -0.000274   0.000487  -0.008084   0.018998
    22  O   -0.000282   0.001484   0.040190  -0.000566   0.008243   0.056256
    23  C    0.017956   0.046495   0.440787  -0.083686   0.216244  -0.217601
    24  C   -0.007161   0.026410  -0.122502   0.005460  -0.017710   0.035948
    25  C   -0.068481   0.017791   0.464663  -0.008590  -0.013663  -0.008893
    26  C    0.474462  -0.086743  -0.254970   0.106045   0.043891  -0.013122
    27  C   -0.067041   0.414215   0.233472   0.077983   0.048838   0.067783
    28  C   -0.012075  -0.033596  -2.021773  -0.155908  -0.156059   0.130124
    29  H    0.001500   0.000483  -0.019146   0.000361   0.001391   0.001200
    30  H   -0.013504   0.001285   0.005953  -0.000127  -0.000165   0.000119
    31  H    0.498247  -0.014870  -0.004251   0.001090   0.000615   0.000064
    32  H   -0.014870   0.483542  -0.024527  -0.003154   0.001207   0.000215
    33  C   -0.004251  -0.024527   8.166727   0.286831   0.138355  -0.076709
    34  O    0.001090  -0.003154   0.286831   8.239560  -0.112318   0.009125
    35  O    0.000615   0.001207   0.138355  -0.112318   8.291801   0.123481
    36  H    0.000064   0.000215  -0.076709   0.009125   0.123481   0.329204
 Mulliken atomic charges:
              1
     1  C   -0.900604
     2  C    0.282473
     3  C   -0.439849
     4  C   -0.476452
     5  C    0.783473
     6  C   -0.621968
     7  N   -0.041011
     8  C    0.153970
     9  C   -0.908525
    10  C    1.213017
    11  O   -0.521783
    12  H    0.686452
    13  H    0.239447
    14  H    0.215116
    15  H    0.179996
    16  H    0.263416
    17  H    0.236465
    18  H    0.274977
    19  H    0.384422
    20  C   -0.654021
    21  O   -0.475311
    22  O   -0.454459
    23  C    1.419760
    24  C   -0.420570
    25  C   -0.402512
    26  C   -0.321580
    27  C   -0.472283
    28  C    0.336486
    29  H    0.160566
    30  H    0.207479
    31  H    0.194845
    32  H    0.207350
    33  C   -0.011334
    34  O   -0.406859
    35  O   -0.368095
    36  H    0.457504
 Sum of Mulliken atomic charges =   0.00000
 Mulliken charges with hydrogens summed into heavy atoms:
              1
     1  C   -0.900604
     2  C    0.521919
     3  C   -0.224733
     4  C   -0.296456
     5  C    0.783473
     6  C   -0.621968
     7  N    0.343411
     8  C    0.428948
     9  C   -0.672059
    10  C    1.476432
    11  O    0.164669
    20  C   -0.654021
    21  O   -0.475311
    22  O   -0.454459
    23  C    1.419760
    24  C   -0.260003
    25  C   -0.195034
    26  C   -0.126735
    27  C   -0.264933
    28  C    0.336486
    33  C   -0.011334
    34  O   -0.406859
    35  O    0.089409
 Sum of Mulliken charges with hydrogens summed into heavy atoms =   0.00000
 Electronic spatial extent (au):  <R**2>=          11451.8490
 Charge=              0.0000 electrons
 Dipole moment (field-independent basis, Debye):
    X=             25.4205    Y=             -8.6432    Z=             -0.9717  Tot=             26.8672
 Quadrupole moment (field-independent basis, Debye-Ang):
   XX=            -53.1295   YY=           -130.4374   ZZ=           -139.2947
   XY=             21.3263   XZ=              0.6365   YZ=             -4.6008
 Traceless Quadrupole moment (field-independent basis, Debye-Ang):
   XX=             54.4910   YY=            -22.8169   ZZ=            -31.6742
   XY=             21.3263   XZ=              0.6365   YZ=             -4.6008
 Octapole moment (field-independent basis, Debye-Ang**2):
  XXX=            772.5968  YYY=            -86.0425  ZZZ=              7.9857  XYY=            157.5430
  XXY=           -263.2413  XXZ=              4.0015  XZZ=              4.4607  YZZ=             -0.9809
  YYZ=             -2.8467  XYZ=            -24.2171
 Hexadecapole moment (field-independent basis, Debye-Ang**3):
 XXXX=          -9509.2135 YYYY=          -1928.2391 ZZZZ=           -246.0193 XXXY=            389.7798
 XXXZ=            -10.0115 YYYX=            181.3046 YYYZ=            -27.9590 ZZZX=             -2.7529
 ZZZY=              0.2235 XXYY=          -2405.8748 XXZZ=          -2431.7370 YYZZ=           -393.6862
 XXYZ=            -20.7110 YYXZ=             13.3745 ZZXY=            -45.3363
 N-N= 1.726310381861D+03 E-N=-5.992555967997D+03  KE= 1.082583527018D+03
 1|1|UNPC-USER-PC|FOpt|RB3LYP|6-311++G(d,p)|C17H13N1O5|USER|26-Oct-2017
 |0||# B3LYP/6-311++G(d,p) Opt SCRF=(IEFPCM,Solvent=Water)||Oxph||0,1|C
 ,-0.0260369326,-0.060368176,-0.1646773211|C,-0.1731847953,0.1892338982
 ,1.1895086977|C,0.9546288895,0.4394251006,2.0024057967|C,2.2347687312,
 0.4391745808,1.4957305384|C,2.4313357166,0.1816342029,0.1174357452|C,1
 .291670467,-0.0631867427,-0.6949049853|N,1.4702845164,-0.306998158,-2.
 0290322918|C,2.6628468615,-0.3322236284,-2.6194362838|C,3.8145162285,-
 0.1018245193,-1.8651217225|C,3.6973668415,0.1526969221,-0.5128835203|O
 ,-1.0085672367,-0.3096412023,-1.0375470802|H,-1.9494404937,-0.19246251
 73,-0.6575102772|H,-1.1662345399,0.1693363434,1.6218399148|H,0.7959055
 63,0.6313558172,3.0569975205|H,3.0920397228,0.6290725919,2.1287554139|
 H,4.5841566868,0.3346800404,0.0831155887|H,4.7774995484,-0.1255501664,
 -2.3548531497|H,2.6774694618,-0.5342611615,-3.6810655423|H,0.626831771
 7,-0.4728684932,-2.5742289089|C,-3.9982238715,-0.2930812718,0.70860152
 25|O,-3.4394179952,0.0569289351,-0.3617558523|O,-3.38556,-0.8645010944
 ,1.6591454044|C,-5.4990596132,-0.0417744597,0.8141373298|C,-6.15586103
 99,0.0863201912,-0.4191564581|C,-7.5277903572,0.2829960518,-0.51328297
 52|C,-8.2840393631,0.3864866373,0.6505032955|C,-7.652165482,0.29043512
 05,1.8831639258|C,-6.2715513037,0.0637585648,2.0029452249|H,-5.5555453
 019,0.0233881078,-1.3162440038|H,-7.9981773724,0.3592447497,-1.4868066
 215|H,-9.355046387,0.5452629859,0.6023959459|H,-8.2263391046,0.3892890
 595,2.7942866091|C,-5.800366648,-0.0118070601,3.4493432121|O,-6.508463
 7398,0.4211872446,4.3476723708|O,-4.6473578246,-0.5825689088,3.7263796
 268|H,-4.1052986183,-0.7946819087,2.8592506279||Version=IA32W-G09RevA.
 02|State=1-A|HF=-1086.8959083|RMSD=4.699e-009|RMSF=4.597e-006|Dipole=8
 .6950672,0.1686945,-6.0083682|Quadrupole=44.5598254,-23.3259578,-21.23
 38676,0.2799516,-1.5909846,3.4985459|PG=C01 [X(C17H13N1O5)]||@


 GOD GAVE US TWO ENDS... ONE TO SIT ON...    
 AND THE OTHER TO THINK WITH...              
 YOUR SUCCESS DEPENDS UPON WHICH END YOU     
 USE THE MOST...                             
                                             
 IT'S A CASE OF HEADS YOU WIN TAILS YOU LOSE.
          SOURCE UNKNOWN(IT'S JUST AS WELL.) 
 Job cpu time:  1 days  1 hours 28 minutes 10.0 seconds.
 File lengths (MBytes):  RWF=    489 Int=      0 D2E=      0 Chk=     25 Scr=      1
 Normal termination of Gaussian 09 at Thu Oct 26 17:59:23 2017.
